
     Program PWSCF v.7.3.1 starts on 29Dec2025 at 14:32:36 

     This program is part of the open-source Quantum ESPRESSO suite
     for quantum simulation of materials; please cite
         "P. Giannozzi et al., J. Phys.:Condens. Matter 21 395502 (2009);
         "P. Giannozzi et al., J. Phys.:Condens. Matter 29 465901 (2017);
         "P. Giannozzi et al., J. Chem. Phys. 152 154105 (2020);
          URL http://www.quantum-espresso.org", 
     in publications or presentations arising from this work. More details at
     http://www.quantum-espresso.org/quote

     Parallel version (MPI), running on     1 processors

     MPI processes distributed on     1 nodes
     0 MiB available memory on the printing compute node when the environment starts

     Reading input from cspbbr3_bands.in

     Current dimensions of program PWSCF are:
     Max number of different atomic species (ntypx) = 10
     Max number of k-points (npk) =  40000
     Max angular momentum in pseudopotentials (lmaxx) =  4
     file Pb.pbe-dn-kjpaw_psl.0.2.2.UPF: wavefunction(s)  6S renormalized

     Atomic positions and unit cell read from directory:
     ./tmp/CsPbBr3.save/

     Message from routine setup:
     using ibrav=0 with symmetry is DISCOURAGED, use correct ibrav instead

     Subspace diagonalization in iterative solution of the eigenvalue problem:
     a serial algorithm will be used


     G-vector sticks info
     --------------------
     sticks:   dense  smooth     PW     G-vecs:    dense   smooth      PW
     Sum        3289    3289    901               141097   141097   20479

     Using Slab Decomposition



     bravais-lattice index     =            0
     lattice parameter (alat)  =      11.3454  a.u.
     unit-cell volume          =    1460.3493 (a.u.)^3
     number of atoms/cell      =            5
     number of atomic types    =            3
     number of electrons       =        44.00
     number of Kohn-Sham states=           30
     kinetic-energy cutoff     =      80.0000  Ry
     charge density cutoff     =     320.0000  Ry
     Exchange-correlation=  SLA  PW   PBX  PBC
                           (   1   4   3   4   0   0   0)

     celldm(1)=  11.345376  celldm(2)=   0.000000  celldm(3)=   0.000000
     celldm(4)=   0.000000  celldm(5)=   0.000000  celldm(6)=   0.000000

     crystal axes: (cart. coord. in units of alat)
               a(1) = (   1.000000   0.000000   0.000000 )  
               a(2) = (   0.000000   1.000000   0.000000 )  
               a(3) = (   0.000000   0.000000   1.000000 )  

     reciprocal axes: (cart. coord. in units 2 pi/alat)
               b(1) = (  1.000000  0.000000  0.000000 )  
               b(2) = (  0.000000  1.000000  0.000000 )  
               b(3) = (  0.000000  0.000000  1.000000 )  


     PseudoPot. # 1 for Cs read from file:
     ./Cs.nc.z_9.oncvpsp3.dojo.v4-str.UPF
     MD5 check sum: d01c53d012be9123745781bcb8b00a26
     Pseudo is Norm-conserving + core correction, Zval =  9.0
     Generated using ONCVPSP code by D. R. Hamann
     Using radial grid of 2414 points,  8 beta functions with: 
                l(1) =   0
                l(2) =   0
                l(3) =   1
                l(4) =   1
                l(5) =   2
                l(6) =   2
                l(7) =   3
                l(8) =   3

     PseudoPot. # 2 for Pb read from file:
     ./Pb.pbe-dn-kjpaw_psl.0.2.2.UPF
     MD5 check sum: 9d431e6316058b74ade52399a6cf67da
     Pseudo is Projector augmented-wave + core cor, Zval = 14.0
     Generated using "atomic" code by A. Dal Corso  v.5.0.99 svn rev. 10869
     Shape of augmentation charge: PSQ
     Using radial grid of 1281 points,  6 beta functions with: 
                l(1) =   0
                l(2) =   0
                l(3) =   1
                l(4) =   1
                l(5) =   2
                l(6) =   2
     Q(r) pseudized with 0 coefficients 


     PseudoPot. # 3 for Br read from file:
     ./br_pbe_v1.4.uspp.F.UPF
     MD5 check sum: d3ffb7b29f6225aa16fe06858fb2a80b
     Pseudo is Ultrasoft + core correction, Zval =  7.0
     Generated by new atomic code, or converted to UPF format
     Using radial grid of  879 points,  6 beta functions with: 
                l(1) =   0
                l(2) =   0
                l(3) =   1
                l(4) =   1
                l(5) =   2
                l(6) =   2
     Q(r) pseudized with  8 coefficients,  rinner =    1.100   1.100   1.100
                                                       1.100   1.100

     atomic species   valence    mass     pseudopotential
     Cs                9.00   132.90545     Cs( 1.00)
     Pb               14.00   207.20000     Pb( 1.00)
     Br                7.00    79.90400     Br( 1.00)

     48 Sym. Ops., with inversion, found


                                    s                        frac. trans.

      isym =  1     identity                                     

 cryst.   s( 1) = (     1          0          0      )
                  (     0          1          0      )
                  (     0          0          1      )

 cart.    s( 1) = (  1.0000000  0.0000000  0.0000000 )
                  (  0.0000000  1.0000000  0.0000000 )
                  (  0.0000000  0.0000000  1.0000000 )


      isym =  2     180 deg rotation - cart. axis [0,0,1]        

 cryst.   s( 2) = (    -1          0          0      )
                  (     0         -1          0      )
                  (     0          0          1      )

 cart.    s( 2) = ( -1.0000000  0.0000000  0.0000000 )
                  (  0.0000000 -1.0000000  0.0000000 )
                  (  0.0000000  0.0000000  1.0000000 )


      isym =  3     180 deg rotation - cart. axis [0,1,0]        

 cryst.   s( 3) = (    -1          0          0      )
                  (     0          1          0      )
                  (     0          0         -1      )

 cart.    s( 3) = ( -1.0000000  0.0000000  0.0000000 )
                  (  0.0000000  1.0000000  0.0000000 )
                  (  0.0000000  0.0000000 -1.0000000 )


      isym =  4     180 deg rotation - cart. axis [1,0,0]        

 cryst.   s( 4) = (     1          0          0      )
                  (     0         -1          0      )
                  (     0          0         -1      )

 cart.    s( 4) = (  1.0000000  0.0000000  0.0000000 )
                  (  0.0000000 -1.0000000  0.0000000 )
                  (  0.0000000  0.0000000 -1.0000000 )


      isym =  5     180 deg rotation - cart. axis [1,1,0]        

 cryst.   s( 5) = (     0          1          0      )
                  (     1          0          0      )
                  (     0          0         -1      )

 cart.    s( 5) = (  0.0000000  1.0000000  0.0000000 )
                  (  1.0000000  0.0000000  0.0000000 )
                  (  0.0000000  0.0000000 -1.0000000 )


      isym =  6     180 deg rotation - cart. axis [1,-1,0]       

 cryst.   s( 6) = (     0         -1          0      )
                  (    -1          0          0      )
                  (     0          0         -1      )

 cart.    s( 6) = (  0.0000000 -1.0000000  0.0000000 )
                  ( -1.0000000  0.0000000  0.0000000 )
                  (  0.0000000  0.0000000 -1.0000000 )


      isym =  7      90 deg rotation - cart. axis [0,0,-1]       

 cryst.   s( 7) = (     0         -1          0      )
                  (     1          0          0      )
                  (     0          0          1      )

 cart.    s( 7) = (  0.0000000  1.0000000  0.0000000 )
                  ( -1.0000000  0.0000000  0.0000000 )
                  (  0.0000000  0.0000000  1.0000000 )


      isym =  8      90 deg rotation - cart. axis [0,0,1]        

 cryst.   s( 8) = (     0          1          0      )
                  (    -1          0          0      )
                  (     0          0          1      )

 cart.    s( 8) = (  0.0000000 -1.0000000  0.0000000 )
                  (  1.0000000  0.0000000  0.0000000 )
                  (  0.0000000  0.0000000  1.0000000 )


      isym =  9     180 deg rotation - cart. axis [1,0,1]        

 cryst.   s( 9) = (     0          0          1      )
                  (     0         -1          0      )
                  (     1          0          0      )

 cart.    s( 9) = (  0.0000000  0.0000000  1.0000000 )
                  (  0.0000000 -1.0000000  0.0000000 )
                  (  1.0000000  0.0000000  0.0000000 )


      isym = 10     180 deg rotation - cart. axis [-1,0,1]       

 cryst.   s(10) = (     0          0         -1      )
                  (     0         -1          0      )
                  (    -1          0          0      )

 cart.    s(10) = (  0.0000000  0.0000000 -1.0000000 )
                  (  0.0000000 -1.0000000  0.0000000 )
                  ( -1.0000000  0.0000000  0.0000000 )


      isym = 11      90 deg rotation - cart. axis [0,1,0]        

 cryst.   s(11) = (     0          0         -1      )
                  (     0          1          0      )
                  (     1          0          0      )

 cart.    s(11) = (  0.0000000  0.0000000  1.0000000 )
                  (  0.0000000  1.0000000  0.0000000 )
                  ( -1.0000000  0.0000000  0.0000000 )


      isym = 12      90 deg rotation - cart. axis [0,-1,0]       

 cryst.   s(12) = (     0          0          1      )
                  (     0          1          0      )
                  (    -1          0          0      )

 cart.    s(12) = (  0.0000000  0.0000000 -1.0000000 )
                  (  0.0000000  1.0000000  0.0000000 )
                  (  1.0000000  0.0000000  0.0000000 )


      isym = 13     180 deg rotation - cart. axis [0,1,1]        

 cryst.   s(13) = (    -1          0          0      )
                  (     0          0          1      )
                  (     0          1          0      )

 cart.    s(13) = ( -1.0000000  0.0000000  0.0000000 )
                  (  0.0000000  0.0000000  1.0000000 )
                  (  0.0000000  1.0000000  0.0000000 )


      isym = 14     180 deg rotation - cart. axis [0,1,-1]       

 cryst.   s(14) = (    -1          0          0      )
                  (     0          0         -1      )
                  (     0         -1          0      )

 cart.    s(14) = ( -1.0000000  0.0000000  0.0000000 )
                  (  0.0000000  0.0000000 -1.0000000 )
                  (  0.0000000 -1.0000000  0.0000000 )


      isym = 15      90 deg rotation - cart. axis [-1,0,0]       

 cryst.   s(15) = (     1          0          0      )
                  (     0          0         -1      )
                  (     0          1          0      )

 cart.    s(15) = (  1.0000000  0.0000000  0.0000000 )
                  (  0.0000000  0.0000000  1.0000000 )
                  (  0.0000000 -1.0000000  0.0000000 )


      isym = 16      90 deg rotation - cart. axis [1,0,0]        

 cryst.   s(16) = (     1          0          0      )
                  (     0          0          1      )
                  (     0         -1          0      )

 cart.    s(16) = (  1.0000000  0.0000000  0.0000000 )
                  (  0.0000000  0.0000000 -1.0000000 )
                  (  0.0000000  1.0000000  0.0000000 )


      isym = 17     120 deg rotation - cart. axis [-1,-1,-1]     

 cryst.   s(17) = (     0          0          1      )
                  (     1          0          0      )
                  (     0          1          0      )

 cart.    s(17) = (  0.0000000  1.0000000  0.0000000 )
                  (  0.0000000  0.0000000  1.0000000 )
                  (  1.0000000  0.0000000  0.0000000 )


      isym = 18     120 deg rotation - cart. axis [-1,1,1]       

 cryst.   s(18) = (     0          0         -1      )
                  (    -1          0          0      )
                  (     0          1          0      )

 cart.    s(18) = (  0.0000000 -1.0000000  0.0000000 )
                  (  0.0000000  0.0000000  1.0000000 )
                  ( -1.0000000  0.0000000  0.0000000 )


      isym = 19     120 deg rotation - cart. axis [1,1,-1]       

 cryst.   s(19) = (     0          0         -1      )
                  (     1          0          0      )
                  (     0         -1          0      )

 cart.    s(19) = (  0.0000000  1.0000000  0.0000000 )
                  (  0.0000000  0.0000000 -1.0000000 )
                  ( -1.0000000  0.0000000  0.0000000 )


      isym = 20     120 deg rotation - cart. axis [1,-1,1]       

 cryst.   s(20) = (     0          0          1      )
                  (    -1          0          0      )
                  (     0         -1          0      )

 cart.    s(20) = (  0.0000000 -1.0000000  0.0000000 )
                  (  0.0000000  0.0000000 -1.0000000 )
                  (  1.0000000  0.0000000  0.0000000 )


      isym = 21     120 deg rotation - cart. axis [1,1,1]        

 cryst.   s(21) = (     0          1          0      )
                  (     0          0          1      )
                  (     1          0          0      )

 cart.    s(21) = (  0.0000000  0.0000000  1.0000000 )
                  (  1.0000000  0.0000000  0.0000000 )
                  (  0.0000000  1.0000000  0.0000000 )


      isym = 22     120 deg rotation - cart. axis [-1,1,-1]      

 cryst.   s(22) = (     0         -1          0      )
                  (     0          0         -1      )
                  (     1          0          0      )

 cart.    s(22) = (  0.0000000  0.0000000  1.0000000 )
                  ( -1.0000000  0.0000000  0.0000000 )
                  (  0.0000000 -1.0000000  0.0000000 )


      isym = 23     120 deg rotation - cart. axis [1,-1,-1]      

 cryst.   s(23) = (     0         -1          0      )
                  (     0          0          1      )
                  (    -1          0          0      )

 cart.    s(23) = (  0.0000000  0.0000000 -1.0000000 )
                  ( -1.0000000  0.0000000  0.0000000 )
                  (  0.0000000  1.0000000  0.0000000 )


      isym = 24     120 deg rotation - cart. axis [-1,-1,1]      

 cryst.   s(24) = (     0          1          0      )
                  (     0          0         -1      )
                  (    -1          0          0      )

 cart.    s(24) = (  0.0000000  0.0000000 -1.0000000 )
                  (  1.0000000  0.0000000  0.0000000 )
                  (  0.0000000 -1.0000000  0.0000000 )


      isym = 25     inversion                                    

 cryst.   s(25) = (    -1          0          0      )
                  (     0         -1          0      )
                  (     0          0         -1      )

 cart.    s(25) = ( -1.0000000  0.0000000  0.0000000 )
                  (  0.0000000 -1.0000000  0.0000000 )
                  (  0.0000000  0.0000000 -1.0000000 )


      isym = 26     inv. 180 deg rotation - cart. axis [0,0,1]   

 cryst.   s(26) = (     1          0          0      )
                  (     0          1          0      )
                  (     0          0         -1      )

 cart.    s(26) = (  1.0000000  0.0000000  0.0000000 )
                  (  0.0000000  1.0000000  0.0000000 )
                  (  0.0000000  0.0000000 -1.0000000 )


      isym = 27     inv. 180 deg rotation - cart. axis [0,1,0]   

 cryst.   s(27) = (     1          0          0      )
                  (     0         -1          0      )
                  (     0          0          1      )

 cart.    s(27) = (  1.0000000  0.0000000  0.0000000 )
                  (  0.0000000 -1.0000000  0.0000000 )
                  (  0.0000000  0.0000000  1.0000000 )


      isym = 28     inv. 180 deg rotation - cart. axis [1,0,0]   

 cryst.   s(28) = (    -1          0          0      )
                  (     0          1          0      )
                  (     0          0          1      )

 cart.    s(28) = ( -1.0000000  0.0000000  0.0000000 )
                  (  0.0000000  1.0000000  0.0000000 )
                  (  0.0000000  0.0000000  1.0000000 )


      isym = 29     inv. 180 deg rotation - cart. axis [1,1,0]   

 cryst.   s(29) = (     0         -1          0      )
                  (    -1          0          0      )
                  (     0          0          1      )

 cart.    s(29) = (  0.0000000 -1.0000000  0.0000000 )
                  ( -1.0000000  0.0000000  0.0000000 )
                  (  0.0000000  0.0000000  1.0000000 )


      isym = 30     inv. 180 deg rotation - cart. axis [1,-1,0]  

 cryst.   s(30) = (     0          1          0      )
                  (     1          0          0      )
                  (     0          0          1      )

 cart.    s(30) = (  0.0000000  1.0000000  0.0000000 )
                  (  1.0000000  0.0000000  0.0000000 )
                  (  0.0000000  0.0000000  1.0000000 )


      isym = 31     inv.  90 deg rotation - cart. axis [0,0,-1]  

 cryst.   s(31) = (     0          1          0      )
                  (    -1          0          0      )
                  (     0          0         -1      )

 cart.    s(31) = (  0.0000000 -1.0000000  0.0000000 )
                  (  1.0000000  0.0000000  0.0000000 )
                  (  0.0000000  0.0000000 -1.0000000 )


      isym = 32     inv.  90 deg rotation - cart. axis [0,0,1]   

 cryst.   s(32) = (     0         -1          0      )
                  (     1          0          0      )
                  (     0          0         -1      )

 cart.    s(32) = (  0.0000000  1.0000000  0.0000000 )
                  ( -1.0000000  0.0000000  0.0000000 )
                  (  0.0000000  0.0000000 -1.0000000 )


      isym = 33     inv. 180 deg rotation - cart. axis [1,0,1]   

 cryst.   s(33) = (     0          0         -1      )
                  (     0          1          0      )
                  (    -1          0          0      )

 cart.    s(33) = (  0.0000000  0.0000000 -1.0000000 )
                  (  0.0000000  1.0000000  0.0000000 )
                  ( -1.0000000  0.0000000  0.0000000 )


      isym = 34     inv. 180 deg rotation - cart. axis [-1,0,1]  

 cryst.   s(34) = (     0          0          1      )
                  (     0          1          0      )
                  (     1          0          0      )

 cart.    s(34) = (  0.0000000  0.0000000  1.0000000 )
                  (  0.0000000  1.0000000  0.0000000 )
                  (  1.0000000  0.0000000  0.0000000 )


      isym = 35     inv.  90 deg rotation - cart. axis [0,1,0]   

 cryst.   s(35) = (     0          0          1      )
                  (     0         -1          0      )
                  (    -1          0          0      )

 cart.    s(35) = (  0.0000000  0.0000000 -1.0000000 )
                  (  0.0000000 -1.0000000  0.0000000 )
                  (  1.0000000  0.0000000  0.0000000 )


      isym = 36     inv.  90 deg rotation - cart. axis [0,-1,0]  

 cryst.   s(36) = (     0          0         -1      )
                  (     0         -1          0      )
                  (     1          0          0      )

 cart.    s(36) = (  0.0000000  0.0000000  1.0000000 )
                  (  0.0000000 -1.0000000  0.0000000 )
                  ( -1.0000000  0.0000000  0.0000000 )


      isym = 37     inv. 180 deg rotation - cart. axis [0,1,1]   

 cryst.   s(37) = (     1          0          0      )
                  (     0          0         -1      )
                  (     0         -1          0      )

 cart.    s(37) = (  1.0000000  0.0000000  0.0000000 )
                  (  0.0000000  0.0000000 -1.0000000 )
                  (  0.0000000 -1.0000000  0.0000000 )


      isym = 38     inv. 180 deg rotation - cart. axis [0,1,-1]  

 cryst.   s(38) = (     1          0          0      )
                  (     0          0          1      )
                  (     0          1          0      )

 cart.    s(38) = (  1.0000000  0.0000000  0.0000000 )
                  (  0.0000000  0.0000000  1.0000000 )
                  (  0.0000000  1.0000000  0.0000000 )


      isym = 39     inv.  90 deg rotation - cart. axis [-1,0,0]  

 cryst.   s(39) = (    -1          0          0      )
                  (     0          0          1      )
                  (     0         -1          0      )

 cart.    s(39) = ( -1.0000000  0.0000000  0.0000000 )
                  (  0.0000000  0.0000000 -1.0000000 )
                  (  0.0000000  1.0000000  0.0000000 )


      isym = 40     inv.  90 deg rotation - cart. axis [1,0,0]   

 cryst.   s(40) = (    -1          0          0      )
                  (     0          0         -1      )
                  (     0          1          0      )

 cart.    s(40) = ( -1.0000000  0.0000000  0.0000000 )
                  (  0.0000000  0.0000000  1.0000000 )
                  (  0.0000000 -1.0000000  0.0000000 )


      isym = 41     inv. 120 deg rotation - cart. axis [-1,-1,-1]

 cryst.   s(41) = (     0          0         -1      )
                  (    -1          0          0      )
                  (     0         -1          0      )

 cart.    s(41) = (  0.0000000 -1.0000000  0.0000000 )
                  (  0.0000000  0.0000000 -1.0000000 )
                  ( -1.0000000  0.0000000  0.0000000 )


      isym = 42     inv. 120 deg rotation - cart. axis [-1,1,1]  

 cryst.   s(42) = (     0          0          1      )
                  (     1          0          0      )
                  (     0         -1          0      )

 cart.    s(42) = (  0.0000000  1.0000000  0.0000000 )
                  (  0.0000000  0.0000000 -1.0000000 )
                  (  1.0000000  0.0000000  0.0000000 )


      isym = 43     inv. 120 deg rotation - cart. axis [1,1,-1]  

 cryst.   s(43) = (     0          0          1      )
                  (    -1          0          0      )
                  (     0          1          0      )

 cart.    s(43) = (  0.0000000 -1.0000000  0.0000000 )
                  (  0.0000000  0.0000000  1.0000000 )
                  (  1.0000000  0.0000000  0.0000000 )


      isym = 44     inv. 120 deg rotation - cart. axis [1,-1,1]  

 cryst.   s(44) = (     0          0         -1      )
                  (     1          0          0      )
                  (     0          1          0      )

 cart.    s(44) = (  0.0000000  1.0000000  0.0000000 )
                  (  0.0000000  0.0000000  1.0000000 )
                  ( -1.0000000  0.0000000  0.0000000 )


      isym = 45     inv. 120 deg rotation - cart. axis [1,1,1]   

 cryst.   s(45) = (     0         -1          0      )
                  (     0          0         -1      )
                  (    -1          0          0      )

 cart.    s(45) = (  0.0000000  0.0000000 -1.0000000 )
                  ( -1.0000000  0.0000000  0.0000000 )
                  (  0.0000000 -1.0000000  0.0000000 )


      isym = 46     inv. 120 deg rotation - cart. axis [-1,1,-1] 

 cryst.   s(46) = (     0          1          0      )
                  (     0          0          1      )
                  (    -1          0          0      )

 cart.    s(46) = (  0.0000000  0.0000000 -1.0000000 )
                  (  1.0000000  0.0000000  0.0000000 )
                  (  0.0000000  1.0000000  0.0000000 )


      isym = 47     inv. 120 deg rotation - cart. axis [1,-1,-1] 

 cryst.   s(47) = (     0          1          0      )
                  (     0          0         -1      )
                  (     1          0          0      )

 cart.    s(47) = (  0.0000000  0.0000000  1.0000000 )
                  (  1.0000000  0.0000000  0.0000000 )
                  (  0.0000000 -1.0000000  0.0000000 )


      isym = 48     inv. 120 deg rotation - cart. axis [-1,-1,1] 

 cryst.   s(48) = (     0         -1          0      )
                  (     0          0          1      )
                  (     1          0          0      )

 cart.    s(48) = (  0.0000000  0.0000000  1.0000000 )
                  ( -1.0000000  0.0000000  0.0000000 )
                  (  0.0000000  1.0000000  0.0000000 )


   Cartesian axes

     site n.     atom                  positions (alat units)
         1        Cs     tau(   1) = (   0.0000000   0.0000000   0.0000000  )
         2        Pb     tau(   2) = (   0.5000000   0.5000000   0.5000000  )
         3        Br     tau(   3) = (   0.5000000   0.5000000   0.0000000  )
         4        Br     tau(   4) = (   0.5000000   0.0000000   0.5000000  )
         5        Br     tau(   5) = (   0.0000000   0.5000000   0.5000000  )

   Crystallographic axes

     site n.     atom                  positions (cryst. coord.)
         1        Cs     tau(   1) = (  0.0000000  0.0000000  0.0000000  )
         2        Pb     tau(   2) = (  0.5000000  0.5000000  0.5000000  )
         3        Br     tau(   3) = (  0.5000000  0.5000000  0.0000000  )
         4        Br     tau(   4) = (  0.5000000  0.0000000  0.5000000  )
         5        Br     tau(   5) = (  0.0000000  0.5000000  0.5000000  )

     number of k points=   161
                       cart. coord. in units 2pi/alat
        k(    1) = (   0.0000000   0.0000000   0.0000000), wk =   0.0124224
        k(    2) = (   0.0125000   0.0000000   0.0000000), wk =   0.0124224
        k(    3) = (   0.0250000   0.0000000   0.0000000), wk =   0.0124224
        k(    4) = (   0.0375000   0.0000000   0.0000000), wk =   0.0124224
        k(    5) = (   0.0500000   0.0000000   0.0000000), wk =   0.0124224
        k(    6) = (   0.0625000   0.0000000   0.0000000), wk =   0.0124224
        k(    7) = (   0.0750000   0.0000000   0.0000000), wk =   0.0124224
        k(    8) = (   0.0875000   0.0000000   0.0000000), wk =   0.0124224
        k(    9) = (   0.1000000   0.0000000   0.0000000), wk =   0.0124224
        k(   10) = (   0.1125000   0.0000000   0.0000000), wk =   0.0124224
        k(   11) = (   0.1250000   0.0000000   0.0000000), wk =   0.0124224
        k(   12) = (   0.1375000   0.0000000   0.0000000), wk =   0.0124224
        k(   13) = (   0.1500000   0.0000000   0.0000000), wk =   0.0124224
        k(   14) = (   0.1625000   0.0000000   0.0000000), wk =   0.0124224
        k(   15) = (   0.1750000   0.0000000   0.0000000), wk =   0.0124224
        k(   16) = (   0.1875000   0.0000000   0.0000000), wk =   0.0124224
        k(   17) = (   0.2000000   0.0000000   0.0000000), wk =   0.0124224
        k(   18) = (   0.2125000   0.0000000   0.0000000), wk =   0.0124224
        k(   19) = (   0.2250000   0.0000000   0.0000000), wk =   0.0124224
        k(   20) = (   0.2375000   0.0000000   0.0000000), wk =   0.0124224
        k(   21) = (   0.2500000   0.0000000   0.0000000), wk =   0.0124224
        k(   22) = (   0.2625000   0.0000000   0.0000000), wk =   0.0124224
        k(   23) = (   0.2750000   0.0000000   0.0000000), wk =   0.0124224
        k(   24) = (   0.2875000   0.0000000   0.0000000), wk =   0.0124224
        k(   25) = (   0.3000000   0.0000000   0.0000000), wk =   0.0124224
        k(   26) = (   0.3125000   0.0000000   0.0000000), wk =   0.0124224
        k(   27) = (   0.3250000   0.0000000   0.0000000), wk =   0.0124224
        k(   28) = (   0.3375000   0.0000000   0.0000000), wk =   0.0124224
        k(   29) = (   0.3500000   0.0000000   0.0000000), wk =   0.0124224
        k(   30) = (   0.3625000   0.0000000   0.0000000), wk =   0.0124224
        k(   31) = (   0.3750000   0.0000000   0.0000000), wk =   0.0124224
        k(   32) = (   0.3875000   0.0000000   0.0000000), wk =   0.0124224
        k(   33) = (   0.4000000   0.0000000   0.0000000), wk =   0.0124224
        k(   34) = (   0.4125000   0.0000000   0.0000000), wk =   0.0124224
        k(   35) = (   0.4250000   0.0000000   0.0000000), wk =   0.0124224
        k(   36) = (   0.4375000   0.0000000   0.0000000), wk =   0.0124224
        k(   37) = (   0.4500000   0.0000000   0.0000000), wk =   0.0124224
        k(   38) = (   0.4625000   0.0000000   0.0000000), wk =   0.0124224
        k(   39) = (   0.4750000   0.0000000   0.0000000), wk =   0.0124224
        k(   40) = (   0.4875000   0.0000000   0.0000000), wk =   0.0124224
        k(   41) = (   0.5000000   0.0000000   0.0000000), wk =   0.0124224
        k(   42) = (   0.5000000   0.0125000   0.0000000), wk =   0.0124224
        k(   43) = (   0.5000000   0.0250000   0.0000000), wk =   0.0124224
        k(   44) = (   0.5000000   0.0375000   0.0000000), wk =   0.0124224
        k(   45) = (   0.5000000   0.0500000   0.0000000), wk =   0.0124224
        k(   46) = (   0.5000000   0.0625000   0.0000000), wk =   0.0124224
        k(   47) = (   0.5000000   0.0750000   0.0000000), wk =   0.0124224
        k(   48) = (   0.5000000   0.0875000   0.0000000), wk =   0.0124224
        k(   49) = (   0.5000000   0.1000000   0.0000000), wk =   0.0124224
        k(   50) = (   0.5000000   0.1125000   0.0000000), wk =   0.0124224
        k(   51) = (   0.5000000   0.1250000   0.0000000), wk =   0.0124224
        k(   52) = (   0.5000000   0.1375000   0.0000000), wk =   0.0124224
        k(   53) = (   0.5000000   0.1500000   0.0000000), wk =   0.0124224
        k(   54) = (   0.5000000   0.1625000   0.0000000), wk =   0.0124224
        k(   55) = (   0.5000000   0.1750000   0.0000000), wk =   0.0124224
        k(   56) = (   0.5000000   0.1875000   0.0000000), wk =   0.0124224
        k(   57) = (   0.5000000   0.2000000   0.0000000), wk =   0.0124224
        k(   58) = (   0.5000000   0.2125000   0.0000000), wk =   0.0124224
        k(   59) = (   0.5000000   0.2250000   0.0000000), wk =   0.0124224
        k(   60) = (   0.5000000   0.2375000   0.0000000), wk =   0.0124224
        k(   61) = (   0.5000000   0.2500000   0.0000000), wk =   0.0124224
        k(   62) = (   0.5000000   0.2625000   0.0000000), wk =   0.0124224
        k(   63) = (   0.5000000   0.2750000   0.0000000), wk =   0.0124224
        k(   64) = (   0.5000000   0.2875000   0.0000000), wk =   0.0124224
        k(   65) = (   0.5000000   0.3000000   0.0000000), wk =   0.0124224
        k(   66) = (   0.5000000   0.3125000   0.0000000), wk =   0.0124224
        k(   67) = (   0.5000000   0.3250000   0.0000000), wk =   0.0124224
        k(   68) = (   0.5000000   0.3375000   0.0000000), wk =   0.0124224
        k(   69) = (   0.5000000   0.3500000   0.0000000), wk =   0.0124224
        k(   70) = (   0.5000000   0.3625000   0.0000000), wk =   0.0124224
        k(   71) = (   0.5000000   0.3750000   0.0000000), wk =   0.0124224
        k(   72) = (   0.5000000   0.3875000   0.0000000), wk =   0.0124224
        k(   73) = (   0.5000000   0.4000000   0.0000000), wk =   0.0124224
        k(   74) = (   0.5000000   0.4125000   0.0000000), wk =   0.0124224
        k(   75) = (   0.5000000   0.4250000   0.0000000), wk =   0.0124224
        k(   76) = (   0.5000000   0.4375000   0.0000000), wk =   0.0124224
        k(   77) = (   0.5000000   0.4500000   0.0000000), wk =   0.0124224
        k(   78) = (   0.5000000   0.4625000   0.0000000), wk =   0.0124224
        k(   79) = (   0.5000000   0.4750000   0.0000000), wk =   0.0124224
        k(   80) = (   0.5000000   0.4875000   0.0000000), wk =   0.0124224
        k(   81) = (   0.5000000   0.5000000   0.0000000), wk =   0.0124224
        k(   82) = (   0.4875000   0.4875000   0.0000000), wk =   0.0124224
        k(   83) = (   0.4750000   0.4750000   0.0000000), wk =   0.0124224
        k(   84) = (   0.4625000   0.4625000   0.0000000), wk =   0.0124224
        k(   85) = (   0.4500000   0.4500000   0.0000000), wk =   0.0124224
        k(   86) = (   0.4375000   0.4375000   0.0000000), wk =   0.0124224
        k(   87) = (   0.4250000   0.4250000   0.0000000), wk =   0.0124224
        k(   88) = (   0.4125000   0.4125000   0.0000000), wk =   0.0124224
        k(   89) = (   0.4000000   0.4000000   0.0000000), wk =   0.0124224
        k(   90) = (   0.3875000   0.3875000   0.0000000), wk =   0.0124224
        k(   91) = (   0.3750000   0.3750000   0.0000000), wk =   0.0124224
        k(   92) = (   0.3625000   0.3625000   0.0000000), wk =   0.0124224
        k(   93) = (   0.3500000   0.3500000   0.0000000), wk =   0.0124224
        k(   94) = (   0.3375000   0.3375000   0.0000000), wk =   0.0124224
        k(   95) = (   0.3250000   0.3250000   0.0000000), wk =   0.0124224
        k(   96) = (   0.3125000   0.3125000   0.0000000), wk =   0.0124224
        k(   97) = (   0.3000000   0.3000000   0.0000000), wk =   0.0124224
        k(   98) = (   0.2875000   0.2875000   0.0000000), wk =   0.0124224
        k(   99) = (   0.2750000   0.2750000   0.0000000), wk =   0.0124224
        k(  100) = (   0.2625000   0.2625000   0.0000000), wk =   0.0124224
        k(  101) = (   0.2500000   0.2500000   0.0000000), wk =   0.0124224
        k(  102) = (   0.2375000   0.2375000   0.0000000), wk =   0.0124224
        k(  103) = (   0.2250000   0.2250000   0.0000000), wk =   0.0124224
        k(  104) = (   0.2125000   0.2125000   0.0000000), wk =   0.0124224
        k(  105) = (   0.2000000   0.2000000   0.0000000), wk =   0.0124224
        k(  106) = (   0.1875000   0.1875000   0.0000000), wk =   0.0124224
        k(  107) = (   0.1750000   0.1750000   0.0000000), wk =   0.0124224
        k(  108) = (   0.1625000   0.1625000   0.0000000), wk =   0.0124224
        k(  109) = (   0.1500000   0.1500000   0.0000000), wk =   0.0124224
        k(  110) = (   0.1375000   0.1375000   0.0000000), wk =   0.0124224
        k(  111) = (   0.1250000   0.1250000   0.0000000), wk =   0.0124224
        k(  112) = (   0.1125000   0.1125000   0.0000000), wk =   0.0124224
        k(  113) = (   0.1000000   0.1000000   0.0000000), wk =   0.0124224
        k(  114) = (   0.0875000   0.0875000   0.0000000), wk =   0.0124224
        k(  115) = (   0.0750000   0.0750000   0.0000000), wk =   0.0124224
        k(  116) = (   0.0625000   0.0625000   0.0000000), wk =   0.0124224
        k(  117) = (   0.0500000   0.0500000   0.0000000), wk =   0.0124224
        k(  118) = (   0.0375000   0.0375000   0.0000000), wk =   0.0124224
        k(  119) = (   0.0250000   0.0250000   0.0000000), wk =   0.0124224
        k(  120) = (   0.0125000   0.0125000   0.0000000), wk =   0.0124224
        k(  121) = (   0.0000000   0.0000000   0.0000000), wk =   0.0124224
        k(  122) = (   0.0125000   0.0125000   0.0125000), wk =   0.0124224
        k(  123) = (   0.0250000   0.0250000   0.0250000), wk =   0.0124224
        k(  124) = (   0.0375000   0.0375000   0.0375000), wk =   0.0124224
        k(  125) = (   0.0500000   0.0500000   0.0500000), wk =   0.0124224
        k(  126) = (   0.0625000   0.0625000   0.0625000), wk =   0.0124224
        k(  127) = (   0.0750000   0.0750000   0.0750000), wk =   0.0124224
        k(  128) = (   0.0875000   0.0875000   0.0875000), wk =   0.0124224
        k(  129) = (   0.1000000   0.1000000   0.1000000), wk =   0.0124224
        k(  130) = (   0.1125000   0.1125000   0.1125000), wk =   0.0124224
        k(  131) = (   0.1250000   0.1250000   0.1250000), wk =   0.0124224
        k(  132) = (   0.1375000   0.1375000   0.1375000), wk =   0.0124224
        k(  133) = (   0.1500000   0.1500000   0.1500000), wk =   0.0124224
        k(  134) = (   0.1625000   0.1625000   0.1625000), wk =   0.0124224
        k(  135) = (   0.1750000   0.1750000   0.1750000), wk =   0.0124224
        k(  136) = (   0.1875000   0.1875000   0.1875000), wk =   0.0124224
        k(  137) = (   0.2000000   0.2000000   0.2000000), wk =   0.0124224
        k(  138) = (   0.2125000   0.2125000   0.2125000), wk =   0.0124224
        k(  139) = (   0.2250000   0.2250000   0.2250000), wk =   0.0124224
        k(  140) = (   0.2375000   0.2375000   0.2375000), wk =   0.0124224
        k(  141) = (   0.2500000   0.2500000   0.2500000), wk =   0.0124224
        k(  142) = (   0.2625000   0.2625000   0.2625000), wk =   0.0124224
        k(  143) = (   0.2750000   0.2750000   0.2750000), wk =   0.0124224
        k(  144) = (   0.2875000   0.2875000   0.2875000), wk =   0.0124224
        k(  145) = (   0.3000000   0.3000000   0.3000000), wk =   0.0124224
        k(  146) = (   0.3125000   0.3125000   0.3125000), wk =   0.0124224
        k(  147) = (   0.3250000   0.3250000   0.3250000), wk =   0.0124224
        k(  148) = (   0.3375000   0.3375000   0.3375000), wk =   0.0124224
        k(  149) = (   0.3500000   0.3500000   0.3500000), wk =   0.0124224
        k(  150) = (   0.3625000   0.3625000   0.3625000), wk =   0.0124224
        k(  151) = (   0.3750000   0.3750000   0.3750000), wk =   0.0124224
        k(  152) = (   0.3875000   0.3875000   0.3875000), wk =   0.0124224
        k(  153) = (   0.4000000   0.4000000   0.4000000), wk =   0.0124224
        k(  154) = (   0.4125000   0.4125000   0.4125000), wk =   0.0124224
        k(  155) = (   0.4250000   0.4250000   0.4250000), wk =   0.0124224
        k(  156) = (   0.4375000   0.4375000   0.4375000), wk =   0.0124224
        k(  157) = (   0.4500000   0.4500000   0.4500000), wk =   0.0124224
        k(  158) = (   0.4625000   0.4625000   0.4625000), wk =   0.0124224
        k(  159) = (   0.4750000   0.4750000   0.4750000), wk =   0.0124224
        k(  160) = (   0.4875000   0.4875000   0.4875000), wk =   0.0124224
        k(  161) = (   0.5000000   0.5000000   0.5000000), wk =   0.0124224

                       cryst. coord.
        k(    1) = (   0.0000000   0.0000000   0.0000000), wk =   0.0124224
        k(    2) = (   0.0125000   0.0000000   0.0000000), wk =   0.0124224
        k(    3) = (   0.0250000   0.0000000   0.0000000), wk =   0.0124224
        k(    4) = (   0.0375000   0.0000000   0.0000000), wk =   0.0124224
        k(    5) = (   0.0500000   0.0000000   0.0000000), wk =   0.0124224
        k(    6) = (   0.0625000   0.0000000   0.0000000), wk =   0.0124224
        k(    7) = (   0.0750000   0.0000000   0.0000000), wk =   0.0124224
        k(    8) = (   0.0875000   0.0000000   0.0000000), wk =   0.0124224
        k(    9) = (   0.1000000   0.0000000   0.0000000), wk =   0.0124224
        k(   10) = (   0.1125000   0.0000000   0.0000000), wk =   0.0124224
        k(   11) = (   0.1250000   0.0000000   0.0000000), wk =   0.0124224
        k(   12) = (   0.1375000   0.0000000   0.0000000), wk =   0.0124224
        k(   13) = (   0.1500000   0.0000000   0.0000000), wk =   0.0124224
        k(   14) = (   0.1625000   0.0000000   0.0000000), wk =   0.0124224
        k(   15) = (   0.1750000   0.0000000   0.0000000), wk =   0.0124224
        k(   16) = (   0.1875000   0.0000000   0.0000000), wk =   0.0124224
        k(   17) = (   0.2000000   0.0000000   0.0000000), wk =   0.0124224
        k(   18) = (   0.2125000   0.0000000   0.0000000), wk =   0.0124224
        k(   19) = (   0.2250000   0.0000000   0.0000000), wk =   0.0124224
        k(   20) = (   0.2375000   0.0000000   0.0000000), wk =   0.0124224
        k(   21) = (   0.2500000   0.0000000   0.0000000), wk =   0.0124224
        k(   22) = (   0.2625000   0.0000000   0.0000000), wk =   0.0124224
        k(   23) = (   0.2750000   0.0000000   0.0000000), wk =   0.0124224
        k(   24) = (   0.2875000   0.0000000   0.0000000), wk =   0.0124224
        k(   25) = (   0.3000000   0.0000000   0.0000000), wk =   0.0124224
        k(   26) = (   0.3125000   0.0000000   0.0000000), wk =   0.0124224
        k(   27) = (   0.3250000   0.0000000   0.0000000), wk =   0.0124224
        k(   28) = (   0.3375000   0.0000000   0.0000000), wk =   0.0124224
        k(   29) = (   0.3500000   0.0000000   0.0000000), wk =   0.0124224
        k(   30) = (   0.3625000   0.0000000   0.0000000), wk =   0.0124224
        k(   31) = (   0.3750000   0.0000000   0.0000000), wk =   0.0124224
        k(   32) = (   0.3875000   0.0000000   0.0000000), wk =   0.0124224
        k(   33) = (   0.4000000   0.0000000   0.0000000), wk =   0.0124224
        k(   34) = (   0.4125000   0.0000000   0.0000000), wk =   0.0124224
        k(   35) = (   0.4250000   0.0000000   0.0000000), wk =   0.0124224
        k(   36) = (   0.4375000   0.0000000   0.0000000), wk =   0.0124224
        k(   37) = (   0.4500000   0.0000000   0.0000000), wk =   0.0124224
        k(   38) = (   0.4625000   0.0000000   0.0000000), wk =   0.0124224
        k(   39) = (   0.4750000   0.0000000   0.0000000), wk =   0.0124224
        k(   40) = (   0.4875000   0.0000000   0.0000000), wk =   0.0124224
        k(   41) = (   0.5000000   0.0000000   0.0000000), wk =   0.0124224
        k(   42) = (   0.5000000   0.0125000   0.0000000), wk =   0.0124224
        k(   43) = (   0.5000000   0.0250000   0.0000000), wk =   0.0124224
        k(   44) = (   0.5000000   0.0375000   0.0000000), wk =   0.0124224
        k(   45) = (   0.5000000   0.0500000   0.0000000), wk =   0.0124224
        k(   46) = (   0.5000000   0.0625000   0.0000000), wk =   0.0124224
        k(   47) = (   0.5000000   0.0750000   0.0000000), wk =   0.0124224
        k(   48) = (   0.5000000   0.0875000   0.0000000), wk =   0.0124224
        k(   49) = (   0.5000000   0.1000000   0.0000000), wk =   0.0124224
        k(   50) = (   0.5000000   0.1125000   0.0000000), wk =   0.0124224
        k(   51) = (   0.5000000   0.1250000   0.0000000), wk =   0.0124224
        k(   52) = (   0.5000000   0.1375000   0.0000000), wk =   0.0124224
        k(   53) = (   0.5000000   0.1500000   0.0000000), wk =   0.0124224
        k(   54) = (   0.5000000   0.1625000   0.0000000), wk =   0.0124224
        k(   55) = (   0.5000000   0.1750000   0.0000000), wk =   0.0124224
        k(   56) = (   0.5000000   0.1875000   0.0000000), wk =   0.0124224
        k(   57) = (   0.5000000   0.2000000   0.0000000), wk =   0.0124224
        k(   58) = (   0.5000000   0.2125000   0.0000000), wk =   0.0124224
        k(   59) = (   0.5000000   0.2250000   0.0000000), wk =   0.0124224
        k(   60) = (   0.5000000   0.2375000   0.0000000), wk =   0.0124224
        k(   61) = (   0.5000000   0.2500000   0.0000000), wk =   0.0124224
        k(   62) = (   0.5000000   0.2625000   0.0000000), wk =   0.0124224
        k(   63) = (   0.5000000   0.2750000   0.0000000), wk =   0.0124224
        k(   64) = (   0.5000000   0.2875000   0.0000000), wk =   0.0124224
        k(   65) = (   0.5000000   0.3000000   0.0000000), wk =   0.0124224
        k(   66) = (   0.5000000   0.3125000   0.0000000), wk =   0.0124224
        k(   67) = (   0.5000000   0.3250000   0.0000000), wk =   0.0124224
        k(   68) = (   0.5000000   0.3375000   0.0000000), wk =   0.0124224
        k(   69) = (   0.5000000   0.3500000   0.0000000), wk =   0.0124224
        k(   70) = (   0.5000000   0.3625000   0.0000000), wk =   0.0124224
        k(   71) = (   0.5000000   0.3750000   0.0000000), wk =   0.0124224
        k(   72) = (   0.5000000   0.3875000   0.0000000), wk =   0.0124224
        k(   73) = (   0.5000000   0.4000000   0.0000000), wk =   0.0124224
        k(   74) = (   0.5000000   0.4125000   0.0000000), wk =   0.0124224
        k(   75) = (   0.5000000   0.4250000   0.0000000), wk =   0.0124224
        k(   76) = (   0.5000000   0.4375000   0.0000000), wk =   0.0124224
        k(   77) = (   0.5000000   0.4500000   0.0000000), wk =   0.0124224
        k(   78) = (   0.5000000   0.4625000   0.0000000), wk =   0.0124224
        k(   79) = (   0.5000000   0.4750000   0.0000000), wk =   0.0124224
        k(   80) = (   0.5000000   0.4875000   0.0000000), wk =   0.0124224
        k(   81) = (   0.5000000   0.5000000   0.0000000), wk =   0.0124224
        k(   82) = (   0.4875000   0.4875000   0.0000000), wk =   0.0124224
        k(   83) = (   0.4750000   0.4750000   0.0000000), wk =   0.0124224
        k(   84) = (   0.4625000   0.4625000   0.0000000), wk =   0.0124224
        k(   85) = (   0.4500000   0.4500000   0.0000000), wk =   0.0124224
        k(   86) = (   0.4375000   0.4375000   0.0000000), wk =   0.0124224
        k(   87) = (   0.4250000   0.4250000   0.0000000), wk =   0.0124224
        k(   88) = (   0.4125000   0.4125000   0.0000000), wk =   0.0124224
        k(   89) = (   0.4000000   0.4000000   0.0000000), wk =   0.0124224
        k(   90) = (   0.3875000   0.3875000   0.0000000), wk =   0.0124224
        k(   91) = (   0.3750000   0.3750000   0.0000000), wk =   0.0124224
        k(   92) = (   0.3625000   0.3625000   0.0000000), wk =   0.0124224
        k(   93) = (   0.3500000   0.3500000   0.0000000), wk =   0.0124224
        k(   94) = (   0.3375000   0.3375000   0.0000000), wk =   0.0124224
        k(   95) = (   0.3250000   0.3250000   0.0000000), wk =   0.0124224
        k(   96) = (   0.3125000   0.3125000   0.0000000), wk =   0.0124224
        k(   97) = (   0.3000000   0.3000000   0.0000000), wk =   0.0124224
        k(   98) = (   0.2875000   0.2875000   0.0000000), wk =   0.0124224
        k(   99) = (   0.2750000   0.2750000   0.0000000), wk =   0.0124224
        k(  100) = (   0.2625000   0.2625000   0.0000000), wk =   0.0124224
        k(  101) = (   0.2500000   0.2500000   0.0000000), wk =   0.0124224
        k(  102) = (   0.2375000   0.2375000   0.0000000), wk =   0.0124224
        k(  103) = (   0.2250000   0.2250000   0.0000000), wk =   0.0124224
        k(  104) = (   0.2125000   0.2125000   0.0000000), wk =   0.0124224
        k(  105) = (   0.2000000   0.2000000   0.0000000), wk =   0.0124224
        k(  106) = (   0.1875000   0.1875000   0.0000000), wk =   0.0124224
        k(  107) = (   0.1750000   0.1750000   0.0000000), wk =   0.0124224
        k(  108) = (   0.1625000   0.1625000   0.0000000), wk =   0.0124224
        k(  109) = (   0.1500000   0.1500000   0.0000000), wk =   0.0124224
        k(  110) = (   0.1375000   0.1375000   0.0000000), wk =   0.0124224
        k(  111) = (   0.1250000   0.1250000   0.0000000), wk =   0.0124224
        k(  112) = (   0.1125000   0.1125000   0.0000000), wk =   0.0124224
        k(  113) = (   0.1000000   0.1000000   0.0000000), wk =   0.0124224
        k(  114) = (   0.0875000   0.0875000   0.0000000), wk =   0.0124224
        k(  115) = (   0.0750000   0.0750000   0.0000000), wk =   0.0124224
        k(  116) = (   0.0625000   0.0625000   0.0000000), wk =   0.0124224
        k(  117) = (   0.0500000   0.0500000   0.0000000), wk =   0.0124224
        k(  118) = (   0.0375000   0.0375000   0.0000000), wk =   0.0124224
        k(  119) = (   0.0250000   0.0250000   0.0000000), wk =   0.0124224
        k(  120) = (   0.0125000   0.0125000   0.0000000), wk =   0.0124224
        k(  121) = (   0.0000000   0.0000000   0.0000000), wk =   0.0124224
        k(  122) = (   0.0125000   0.0125000   0.0125000), wk =   0.0124224
        k(  123) = (   0.0250000   0.0250000   0.0250000), wk =   0.0124224
        k(  124) = (   0.0375000   0.0375000   0.0375000), wk =   0.0124224
        k(  125) = (   0.0500000   0.0500000   0.0500000), wk =   0.0124224
        k(  126) = (   0.0625000   0.0625000   0.0625000), wk =   0.0124224
        k(  127) = (   0.0750000   0.0750000   0.0750000), wk =   0.0124224
        k(  128) = (   0.0875000   0.0875000   0.0875000), wk =   0.0124224
        k(  129) = (   0.1000000   0.1000000   0.1000000), wk =   0.0124224
        k(  130) = (   0.1125000   0.1125000   0.1125000), wk =   0.0124224
        k(  131) = (   0.1250000   0.1250000   0.1250000), wk =   0.0124224
        k(  132) = (   0.1375000   0.1375000   0.1375000), wk =   0.0124224
        k(  133) = (   0.1500000   0.1500000   0.1500000), wk =   0.0124224
        k(  134) = (   0.1625000   0.1625000   0.1625000), wk =   0.0124224
        k(  135) = (   0.1750000   0.1750000   0.1750000), wk =   0.0124224
        k(  136) = (   0.1875000   0.1875000   0.1875000), wk =   0.0124224
        k(  137) = (   0.2000000   0.2000000   0.2000000), wk =   0.0124224
        k(  138) = (   0.2125000   0.2125000   0.2125000), wk =   0.0124224
        k(  139) = (   0.2250000   0.2250000   0.2250000), wk =   0.0124224
        k(  140) = (   0.2375000   0.2375000   0.2375000), wk =   0.0124224
        k(  141) = (   0.2500000   0.2500000   0.2500000), wk =   0.0124224
        k(  142) = (   0.2625000   0.2625000   0.2625000), wk =   0.0124224
        k(  143) = (   0.2750000   0.2750000   0.2750000), wk =   0.0124224
        k(  144) = (   0.2875000   0.2875000   0.2875000), wk =   0.0124224
        k(  145) = (   0.3000000   0.3000000   0.3000000), wk =   0.0124224
        k(  146) = (   0.3125000   0.3125000   0.3125000), wk =   0.0124224
        k(  147) = (   0.3250000   0.3250000   0.3250000), wk =   0.0124224
        k(  148) = (   0.3375000   0.3375000   0.3375000), wk =   0.0124224
        k(  149) = (   0.3500000   0.3500000   0.3500000), wk =   0.0124224
        k(  150) = (   0.3625000   0.3625000   0.3625000), wk =   0.0124224
        k(  151) = (   0.3750000   0.3750000   0.3750000), wk =   0.0124224
        k(  152) = (   0.3875000   0.3875000   0.3875000), wk =   0.0124224
        k(  153) = (   0.4000000   0.4000000   0.4000000), wk =   0.0124224
        k(  154) = (   0.4125000   0.4125000   0.4125000), wk =   0.0124224
        k(  155) = (   0.4250000   0.4250000   0.4250000), wk =   0.0124224
        k(  156) = (   0.4375000   0.4375000   0.4375000), wk =   0.0124224
        k(  157) = (   0.4500000   0.4500000   0.4500000), wk =   0.0124224
        k(  158) = (   0.4625000   0.4625000   0.4625000), wk =   0.0124224
        k(  159) = (   0.4750000   0.4750000   0.4750000), wk =   0.0124224
        k(  160) = (   0.4875000   0.4875000   0.4875000), wk =   0.0124224
        k(  161) = (   0.5000000   0.5000000   0.5000000), wk =   0.0124224

     Dense  grid:   141097 G-vectors     FFT dimensions: (  72,  72,  72)

     Dynamical RAM for                 wfc:       8.08 MB

     Dynamical RAM for     wfc (w. buffer):       8.08 MB

     Dynamical RAM for           str. fact:       6.46 MB

     Dynamical RAM for           local pot:       0.00 MB

     Dynamical RAM for          nlocal pot:      28.00 MB

     Dynamical RAM for                qrad:      10.34 MB

     Dynamical RAM for          rho,v,vnew:      15.00 MB

     Dynamical RAM for           G-vectors:       9.15 MB

     Dynamical RAM for          h,s,v(r/c):       0.16 MB

     Dynamical RAM for          <psi|beta>:       0.05 MB

     Dynamical RAM for                 psi:      16.16 MB

     Dynamical RAM for                hpsi:      16.16 MB

     Dynamical RAM for                spsi:      16.16 MB

     Dynamical RAM for      wfcinit/wfcrot:      16.18 MB

     Dynamical RAM for           addusdens:     432.75 MB

     Estimated static dynamical RAM per process >      99.88 MB

     Estimated max dynamical RAM per process >     532.62 MB

     The potential is recalculated from file :
     ./tmp/CsPbBr3.save/charge-density

     Starting wfcs are   26 randomized atomic wfcs +    4 random wfcs
     Checking if some PAW data can be deallocated... 

     Band Structure Calculation
     Davidson diagonalization with overlap

     Computing kpt #:     1  of   161
     total cpu time spent up to now is        8.9 secs

     Computing kpt #:     2  of   161
     total cpu time spent up to now is       18.5 secs

     Computing kpt #:     3  of   161
     total cpu time spent up to now is       27.7 secs

     Computing kpt #:     4  of   161
     total cpu time spent up to now is       36.8 secs

     Computing kpt #:     5  of   161
     total cpu time spent up to now is       45.5 secs

     Computing kpt #:     6  of   161
     total cpu time spent up to now is       54.1 secs

     Computing kpt #:     7  of   161
     total cpu time spent up to now is       63.0 secs

     Computing kpt #:     8  of   161
     total cpu time spent up to now is       71.8 secs

     Computing kpt #:     9  of   161
     total cpu time spent up to now is       80.7 secs

     Computing kpt #:    10  of   161
     total cpu time spent up to now is       89.4 secs

     Computing kpt #:    11  of   161
     total cpu time spent up to now is       98.5 secs

     Computing kpt #:    12  of   161
     total cpu time spent up to now is      107.5 secs

     Computing kpt #:    13  of   161
     total cpu time spent up to now is      116.7 secs

     Computing kpt #:    14  of   161
     total cpu time spent up to now is      125.8 secs

     Computing kpt #:    15  of   161
     total cpu time spent up to now is      134.8 secs

     Computing kpt #:    16  of   161
     total cpu time spent up to now is      144.7 secs

     Computing kpt #:    17  of   161
     total cpu time spent up to now is      154.2 secs

     Computing kpt #:    18  of   161
     total cpu time spent up to now is      163.4 secs

     Computing kpt #:    19  of   161
     total cpu time spent up to now is      173.3 secs

     Computing kpt #:    20  of   161
     total cpu time spent up to now is      183.0 secs

     Computing kpt #:    21  of   161
     total cpu time spent up to now is      192.4 secs

     Computing kpt #:    22  of   161
     total cpu time spent up to now is      201.7 secs

     Computing kpt #:    23  of   161
     total cpu time spent up to now is      210.9 secs

     Computing kpt #:    24  of   161
     total cpu time spent up to now is      220.9 secs

     Computing kpt #:    25  of   161
     total cpu time spent up to now is      230.9 secs

     Computing kpt #:    26  of   161
     total cpu time spent up to now is      240.4 secs

     Computing kpt #:    27  of   161
     total cpu time spent up to now is      250.1 secs

     Computing kpt #:    28  of   161
     total cpu time spent up to now is      259.8 secs

     Computing kpt #:    29  of   161
     total cpu time spent up to now is      269.1 secs

     Computing kpt #:    30  of   161
     total cpu time spent up to now is      278.2 secs

     Computing kpt #:    31  of   161
     total cpu time spent up to now is      287.3 secs

     Computing kpt #:    32  of   161
     total cpu time spent up to now is      296.8 secs

     Computing kpt #:    33  of   161
     total cpu time spent up to now is      306.8 secs

     Computing kpt #:    34  of   161
     total cpu time spent up to now is      316.1 secs

     Computing kpt #:    35  of   161
     total cpu time spent up to now is      326.0 secs

     Computing kpt #:    36  of   161
     total cpu time spent up to now is      335.9 secs

     Computing kpt #:    37  of   161
     total cpu time spent up to now is      345.5 secs

     Computing kpt #:    38  of   161
     c_bands:  1 eigenvalues not converged
     total cpu time spent up to now is      355.8 secs

     Computing kpt #:    39  of   161
     c_bands:  1 eigenvalues not converged
     total cpu time spent up to now is      366.0 secs

     Computing kpt #:    40  of   161
     c_bands:  1 eigenvalues not converged
     total cpu time spent up to now is      376.3 secs

     Computing kpt #:    41  of   161
     c_bands:  1 eigenvalues not converged
     total cpu time spent up to now is      385.9 secs

     Computing kpt #:    42  of   161
     c_bands:  1 eigenvalues not converged
     total cpu time spent up to now is      396.0 secs

     Computing kpt #:    43  of   161
     c_bands:  1 eigenvalues not converged
     total cpu time spent up to now is      406.4 secs

     Computing kpt #:    44  of   161
     c_bands:  1 eigenvalues not converged
     total cpu time spent up to now is      416.9 secs

     Computing kpt #:    45  of   161
     c_bands:  1 eigenvalues not converged
     total cpu time spent up to now is      427.9 secs

     Computing kpt #:    46  of   161
     total cpu time spent up to now is      438.7 secs

     Computing kpt #:    47  of   161
     c_bands:  1 eigenvalues not converged
     total cpu time spent up to now is      450.2 secs

     Computing kpt #:    48  of   161
     total cpu time spent up to now is      461.5 secs

     Computing kpt #:    49  of   161
     c_bands:  1 eigenvalues not converged
     total cpu time spent up to now is      472.9 secs

     Computing kpt #:    50  of   161
     total cpu time spent up to now is      484.3 secs

     Computing kpt #:    51  of   161
     total cpu time spent up to now is      495.5 secs

     Computing kpt #:    52  of   161
     total cpu time spent up to now is      506.9 secs

     Computing kpt #:    53  of   161
     total cpu time spent up to now is      518.1 secs

     Computing kpt #:    54  of   161
     total cpu time spent up to now is      529.2 secs

     Computing kpt #:    55  of   161
     total cpu time spent up to now is      540.3 secs

     Computing kpt #:    56  of   161
     total cpu time spent up to now is      551.3 secs

     Computing kpt #:    57  of   161
     total cpu time spent up to now is      562.0 secs

     Computing kpt #:    58  of   161
     total cpu time spent up to now is      572.9 secs

     Computing kpt #:    59  of   161
     total cpu time spent up to now is      583.8 secs

     Computing kpt #:    60  of   161
     total cpu time spent up to now is      595.5 secs

     Computing kpt #:    61  of   161
     total cpu time spent up to now is      606.7 secs

     Computing kpt #:    62  of   161
     total cpu time spent up to now is      618.3 secs

     Computing kpt #:    63  of   161
     total cpu time spent up to now is      630.6 secs

     Computing kpt #:    64  of   161
     total cpu time spent up to now is      642.1 secs

     Computing kpt #:    65  of   161
     total cpu time spent up to now is      654.9 secs

     Computing kpt #:    66  of   161
     total cpu time spent up to now is      666.7 secs

     Computing kpt #:    67  of   161
     total cpu time spent up to now is      678.0 secs

     Computing kpt #:    68  of   161
     total cpu time spent up to now is      689.3 secs

     Computing kpt #:    69  of   161
     total cpu time spent up to now is      700.1 secs

     Computing kpt #:    70  of   161
     total cpu time spent up to now is      710.8 secs

     Computing kpt #:    71  of   161
     total cpu time spent up to now is      721.5 secs

     Computing kpt #:    72  of   161
     total cpu time spent up to now is      731.8 secs

     Computing kpt #:    73  of   161
     total cpu time spent up to now is      741.2 secs

     Computing kpt #:    74  of   161
     total cpu time spent up to now is      750.8 secs

     Computing kpt #:    75  of   161
     total cpu time spent up to now is      760.1 secs

     Computing kpt #:    76  of   161
     total cpu time spent up to now is      769.3 secs

     Computing kpt #:    77  of   161
     total cpu time spent up to now is      779.5 secs

     Computing kpt #:    78  of   161
     total cpu time spent up to now is      790.3 secs

     Computing kpt #:    79  of   161
     total cpu time spent up to now is      800.5 secs

     Computing kpt #:    80  of   161
     total cpu time spent up to now is      811.2 secs

     Computing kpt #:    81  of   161
     total cpu time spent up to now is      820.9 secs

     Computing kpt #:    82  of   161
     total cpu time spent up to now is      831.7 secs

     Computing kpt #:    83  of   161
     total cpu time spent up to now is      842.0 secs

     Computing kpt #:    84  of   161
     total cpu time spent up to now is      852.5 secs

     Computing kpt #:    85  of   161
     total cpu time spent up to now is      863.1 secs

     Computing kpt #:    86  of   161
     total cpu time spent up to now is      874.6 secs

     Computing kpt #:    87  of   161
     c_bands:  2 eigenvalues not converged
     total cpu time spent up to now is      886.5 secs

     Computing kpt #:    88  of   161
     total cpu time spent up to now is      898.1 secs

     Computing kpt #:    89  of   161
     c_bands:  1 eigenvalues not converged
     total cpu time spent up to now is      910.5 secs

     Computing kpt #:    90  of   161
     total cpu time spent up to now is      922.1 secs

     Computing kpt #:    91  of   161
     total cpu time spent up to now is      934.4 secs

     Computing kpt #:    92  of   161
     total cpu time spent up to now is      945.6 secs

     Computing kpt #:    93  of   161
     total cpu time spent up to now is      956.9 secs

     Computing kpt #:    94  of   161
     total cpu time spent up to now is      968.1 secs

     Computing kpt #:    95  of   161
     c_bands:  1 eigenvalues not converged
     total cpu time spent up to now is      979.8 secs

     Computing kpt #:    96  of   161
     total cpu time spent up to now is      990.8 secs

     Computing kpt #:    97  of   161
     total cpu time spent up to now is     1002.3 secs

     Computing kpt #:    98  of   161
     total cpu time spent up to now is     1013.8 secs

     Computing kpt #:    99  of   161
     total cpu time spent up to now is     1025.0 secs

     Computing kpt #:   100  of   161
     total cpu time spent up to now is     1036.4 secs

     Computing kpt #:   101  of   161
     total cpu time spent up to now is     1047.8 secs

     Computing kpt #:   102  of   161
     total cpu time spent up to now is     1058.9 secs

     Computing kpt #:   103  of   161
     total cpu time spent up to now is     1070.1 secs

     Computing kpt #:   104  of   161
     c_bands:  1 eigenvalues not converged
     total cpu time spent up to now is     1081.5 secs

     Computing kpt #:   105  of   161
     total cpu time spent up to now is     1092.6 secs

     Computing kpt #:   106  of   161
     total cpu time spent up to now is     1103.7 secs

     Computing kpt #:   107  of   161
     total cpu time spent up to now is     1114.6 secs

     Computing kpt #:   108  of   161
     total cpu time spent up to now is     1125.4 secs

     Computing kpt #:   109  of   161
     total cpu time spent up to now is     1136.4 secs

     Computing kpt #:   110  of   161
     total cpu time spent up to now is     1147.2 secs

     Computing kpt #:   111  of   161
     total cpu time spent up to now is     1157.6 secs

     Computing kpt #:   112  of   161
     total cpu time spent up to now is     1168.3 secs

     Computing kpt #:   113  of   161
     total cpu time spent up to now is     1178.3 secs

     Computing kpt #:   114  of   161
     total cpu time spent up to now is     1188.9 secs

     Computing kpt #:   115  of   161
     total cpu time spent up to now is     1199.4 secs

     Computing kpt #:   116  of   161
     total cpu time spent up to now is     1209.9 secs

     Computing kpt #:   117  of   161
     c_bands:  1 eigenvalues not converged
     total cpu time spent up to now is     1220.9 secs

     Computing kpt #:   118  of   161
     c_bands:  1 eigenvalues not converged
     total cpu time spent up to now is     1231.6 secs

     Computing kpt #:   119  of   161
     total cpu time spent up to now is     1241.8 secs

     Computing kpt #:   120  of   161
     c_bands:  2 eigenvalues not converged
     total cpu time spent up to now is     1252.7 secs

     Computing kpt #:   121  of   161
     total cpu time spent up to now is     1260.2 secs

     Computing kpt #:   122  of   161
     total cpu time spent up to now is     1270.0 secs

     Computing kpt #:   123  of   161
     total cpu time spent up to now is     1279.7 secs

     Computing kpt #:   124  of   161
     total cpu time spent up to now is     1289.6 secs

     Computing kpt #:   125  of   161
     total cpu time spent up to now is     1299.1 secs

     Computing kpt #:   126  of   161
     total cpu time spent up to now is     1308.8 secs

     Computing kpt #:   127  of   161
     total cpu time spent up to now is     1319.3 secs

     Computing kpt #:   128  of   161
     total cpu time spent up to now is     1329.5 secs

     Computing kpt #:   129  of   161
     total cpu time spent up to now is     1339.4 secs

     Computing kpt #:   130  of   161
     total cpu time spent up to now is     1349.7 secs

     Computing kpt #:   131  of   161
     total cpu time spent up to now is     1359.5 secs

     Computing kpt #:   132  of   161
     total cpu time spent up to now is     1369.1 secs

     Computing kpt #:   133  of   161
     total cpu time spent up to now is     1379.1 secs

     Computing kpt #:   134  of   161
     total cpu time spent up to now is     1388.8 secs

     Computing kpt #:   135  of   161
     total cpu time spent up to now is     1398.6 secs

     Computing kpt #:   136  of   161
     total cpu time spent up to now is     1409.1 secs

     Computing kpt #:   137  of   161
     total cpu time spent up to now is     1418.8 secs

     Computing kpt #:   138  of   161
     total cpu time spent up to now is     1429.2 secs

     Computing kpt #:   139  of   161
     total cpu time spent up to now is     1439.3 secs

     Computing kpt #:   140  of   161
     total cpu time spent up to now is     1450.0 secs

     Computing kpt #:   141  of   161
     total cpu time spent up to now is     1460.2 secs

     Computing kpt #:   142  of   161
     total cpu time spent up to now is     1471.0 secs

     Computing kpt #:   143  of   161
     c_bands:  1 eigenvalues not converged
     total cpu time spent up to now is     1482.1 secs

     Computing kpt #:   144  of   161
     c_bands:  1 eigenvalues not converged
     total cpu time spent up to now is     1493.2 secs

     Computing kpt #:   145  of   161
     total cpu time spent up to now is     1503.3 secs

     Computing kpt #:   146  of   161
     total cpu time spent up to now is     1513.5 secs

     Computing kpt #:   147  of   161
     total cpu time spent up to now is     1522.9 secs

     Computing kpt #:   148  of   161
     total cpu time spent up to now is     1532.5 secs

     Computing kpt #:   149  of   161
     total cpu time spent up to now is     1541.9 secs

     Computing kpt #:   150  of   161
     total cpu time spent up to now is     1551.1 secs

     Computing kpt #:   151  of   161
     total cpu time spent up to now is     1560.5 secs

     Computing kpt #:   152  of   161
     total cpu time spent up to now is     1569.6 secs

     Computing kpt #:   153  of   161
     total cpu time spent up to now is     1578.8 secs

     Computing kpt #:   154  of   161
     total cpu time spent up to now is     1587.7 secs

     Computing kpt #:   155  of   161
     total cpu time spent up to now is     1596.5 secs

     Computing kpt #:   156  of   161
     total cpu time spent up to now is     1605.2 secs

     Computing kpt #:   157  of   161
     total cpu time spent up to now is     1613.6 secs

     Computing kpt #:   158  of   161
     total cpu time spent up to now is     1622.1 secs

     Computing kpt #:   159  of   161
     total cpu time spent up to now is     1630.2 secs

     Computing kpt #:   160  of   161
     total cpu time spent up to now is     1638.5 secs

     Computing kpt #:   161  of   161
     total cpu time spent up to now is     1646.4 secs

     ethr =  2.27E-11,  avg # of iterations = 95.3

     total cpu time spent up to now is     1646.4 secs

     End of band structure calculation

          k = 0.0000 0.0000 0.0000 ( 17557 PWs)   bands (ev):

   -18.2540 -13.6898 -13.6898 -13.5841 -13.5841 -13.5841 -11.3131 -10.7472
   -10.7472  -5.0306  -5.0306  -5.0306  -3.8748  -0.7983  -0.7983  -0.7983
     1.2362   1.2362   1.2362   1.3251   1.3251   1.3251   6.2607   7.4672
     7.4672   8.1982   8.1982   8.1982   8.7991   8.7991

          k = 0.0125 0.0000 0.0000 ( 17617 PWs)   bands (ev):

   -18.2540 -13.6898 -13.6897 -13.5841 -13.5841 -13.5841 -11.3129 -10.7475
   -10.7472  -5.0306  -5.0305  -5.0305  -3.8761  -0.7981  -0.7981  -0.7955
     1.2360   1.2360   1.2360   1.3249   1.3249   1.3249   6.2622   7.4681
     7.4683   8.1987   8.1988   8.1988   8.7938   8.7991

          k = 0.0250 0.0000 0.0000 ( 17637 PWs)   bands (ev):

   -18.2540 -13.6898 -13.6895 -13.5841 -13.5841 -13.5841 -11.3125 -10.7483
   -10.7472  -5.0305  -5.0305  -5.0305  -3.8801  -0.7978  -0.7978  -0.7874
     1.2355   1.2355   1.2355   1.3244   1.3244   1.3244   6.2665   7.4706
     7.4717   8.2001   8.2004   8.2004   8.7781   8.7992

          k = 0.0375 0.0000 0.0000 ( 17621 PWs)   bands (ev):

   -18.2540 -13.6898 -13.6892 -13.5841 -13.5841 -13.5841 -11.3118 -10.7496
   -10.7472  -5.0305  -5.0304  -5.0304  -3.8865  -0.7971  -0.7971  -0.7739
     1.2346   1.2347   1.2347   1.3235   1.3235   1.3235   6.2738   7.4749
     7.4773   8.2026   8.2032   8.2032   8.7520   8.7994

          k = 0.0500 0.0000 0.0000 ( 17629 PWs)   bands (ev):

   -18.2540 -13.6898 -13.6888 -13.5841 -13.5841 -13.5841 -11.3107 -10.7514
   -10.7472  -5.0304  -5.0304  -5.0304  -3.8954  -0.7962  -0.7962  -0.7553
     1.2334   1.2336   1.2336   1.3223   1.3223   1.3223   6.2839   7.4808
     7.4851   8.2060   8.2071   8.2071   8.7161   8.7997

          k = 0.0625 0.0000 0.0000 ( 17621 PWs)   bands (ev):

   -18.2540 -13.6898 -13.6882 -13.5841 -13.5841 -13.5841 -11.3094 -10.7537
   -10.7472  -5.0304  -5.0302  -5.0302  -3.9066  -0.7951  -0.7951  -0.7315
     1.2319   1.2321   1.2321   1.3208   1.3208   1.3209   6.2969   7.4884
     7.4951   8.2103   8.2119   8.2119   8.6706   8.8003

          k = 0.0750 0.0000 0.0000 ( 17621 PWs)   bands (ev):

   -18.2540 -13.6898 -13.6875 -13.5841 -13.5841 -13.5841 -11.3078 -10.7565
   -10.7472  -5.0303  -5.0301  -5.0301  -3.9200  -0.7937  -0.7937  -0.7029
     1.2301   1.2303   1.2303   1.3190   1.3190   1.3192   6.3126   7.4976
     7.5073   8.2157   8.2175   8.2175   8.6162   8.8013

          k = 0.0875 0.0000 0.0000 ( 17637 PWs)   bands (ev):

   -18.2540 -13.6898 -13.6867 -13.5841 -13.5841 -13.5841 -11.3060 -10.7598
   -10.7471  -5.0302  -5.0300  -5.0300  -3.9354  -0.7921  -0.7921  -0.6697
     1.2279   1.2282   1.2282   1.3170   1.3170   1.3174   6.3311   7.5084
     7.5216   8.2220   8.2239   8.2239   8.5534   8.8029

          k = 0.1000 0.0000 0.0000 ( 17645 PWs)   bands (ev):

   -18.2540 -13.6898 -13.6858 -13.5841 -13.5841 -13.5841 -11.3038 -10.7636
   -10.7471  -5.0300  -5.0298  -5.0298  -3.9526  -0.7903  -0.7903  -0.6321
     1.2255   1.2258   1.2258   1.3146   1.3146   1.3154   6.3522   7.5206
     7.5380   8.2292   8.2308   8.2308   8.4831   8.8053

          k = 0.1125 0.0000 0.0000 ( 17621 PWs)   bands (ev):

   -18.2540 -13.6898 -13.6848 -13.5841 -13.5841 -13.5841 -11.3013 -10.7678
   -10.7471  -5.0299  -5.0296  -5.0296  -3.9714  -0.7882  -0.7882  -0.5904
     1.2228   1.2231   1.2231   1.3121   1.3121   1.3134   6.3760   7.5343
     7.5564   8.2374   8.2382   8.2382   8.4059   8.8086

          k = 0.1250 0.0000 0.0000 ( 17625 PWs)   bands (ev):

   -18.2539 -13.6898 -13.6837 -13.5841 -13.5841 -13.5841 -11.2986 -10.7725
   -10.7470  -5.0298  -5.0294  -5.0294  -3.9915  -0.7859  -0.7859  -0.5450
     1.2198   1.2200   1.2200   1.3093   1.3093   1.3114   6.4022   7.5492
     7.5767   8.2459   8.2459   8.2465   8.3226   8.8131

          k = 0.1375 0.0000 0.0000 ( 17609 PWs)   bands (ev):

   -18.2539 -13.6898 -13.6825 -13.5842 -13.5842 -13.5841 -11.2955 -10.7777
   -10.7470  -5.0296  -5.0291  -5.0291  -4.0129  -0.7835  -0.7835  -0.4962
     1.2167   1.2167   1.2167   1.3064   1.3064   1.3096   6.4308   7.5652
     7.5989   8.2341   8.2535   8.2535   8.2565   8.8190

          k = 0.1500 0.0000 0.0000 ( 17617 PWs)   bands (ev):

   -18.2539 -13.6898 -13.6812 -13.5842 -13.5842 -13.5841 -11.2922 -10.7833
   -10.7470  -5.0294  -5.0289  -5.0289  -4.0352  -0.7808  -0.7808  -0.4443
     1.2130   1.2130   1.2133   1.3034   1.3034   1.3080   6.4617   7.5818
     7.6229   8.1416   8.2610   8.2610   8.2675   8.8266

          k = 0.1625 0.0000 0.0000 ( 17624 PWs)   bands (ev):

   -18.2539 -13.6898 -13.6798 -13.5842 -13.5842 -13.5841 -11.2886 -10.7893
   -10.7469  -5.0293  -5.0286  -5.0286  -4.0582  -0.7780  -0.7780  -0.3897
     1.2090   1.2090   1.2097   1.3002   1.3002   1.3068   6.4947   7.5983
     7.6487   8.0464   8.2682   8.2682   8.2793   8.8361

          k = 0.1750 0.0000 0.0000 ( 17628 PWs)   bands (ev):

   -18.2539 -13.6898 -13.6784 -13.5842 -13.5842 -13.5841 -11.2848 -10.7958
   -10.7469  -5.0291  -5.0283  -5.0283  -4.0819  -0.7751  -0.7751  -0.3328
     1.2048   1.2048   1.2059   1.2970   1.2970   1.3061   6.5295   7.6130
     7.6760   7.9510   8.2747   8.2747   8.2920   8.8477

          k = 0.1875 0.0000 0.0000 ( 17612 PWs)   bands (ev):

   -18.2538 -13.6898 -13.6769 -13.5843 -13.5843 -13.5840 -11.2806 -10.8026
   -10.7468  -5.0289  -5.0280  -5.0280  -4.1059  -0.7720  -0.7720  -0.2739
     1.2003   1.2003   1.2020   1.2937   1.2937   1.3061   6.5659   7.6211
     7.7049   7.8608   8.2806   8.2806   8.3055   8.8616

          k = 0.2000 0.0000 0.0000 ( 17604 PWs)   bands (ev):

   -18.2538 -13.6898 -13.6753 -13.5843 -13.5843 -13.5840 -11.2762 -10.8097
   -10.7468  -5.0287  -5.0277  -5.0277  -4.1301  -0.7688  -0.7688  -0.2135
     1.1955   1.1955   1.1980   1.2904   1.2904   1.3069   6.6037   7.6079
     7.7352   7.7913   8.2857   8.2857   8.3199   8.8779

          k = 0.2125 0.0000 0.0000 ( 17624 PWs)   bands (ev):

   -18.2538 -13.6898 -13.6737 -13.5843 -13.5843 -13.5840 -11.2715 -10.8173
   -10.7467  -5.0285  -5.0274  -5.0274  -4.1543  -0.7655  -0.7655  -0.1521
     1.1905   1.1905   1.1939   1.2871   1.2871   1.3087   6.6421   7.5526
     7.7644   7.7667   8.2899   8.2899   8.3350   8.8968

          k = 0.2250 0.0000 0.0000 ( 17632 PWs)   bands (ev):

   -18.2538 -13.6898 -13.6721 -13.5843 -13.5843 -13.5840 -11.2665 -10.8251
   -10.7467  -5.0283  -5.0271  -5.0271  -4.1785  -0.7621  -0.7621  -0.0900
     1.1854   1.1854   1.1897   1.2838   1.2838   1.3118   6.6804   7.4664
     7.7698   7.7994   8.2931   8.2931   8.3510   8.9182

          k = 0.2375 0.0000 0.0000 ( 17632 PWs)   bands (ev):

   -18.2537 -13.6898 -13.6704 -13.5844 -13.5844 -13.5840 -11.2613 -10.8332
   -10.7466  -5.0281  -5.0268  -5.0268  -4.2023  -0.7587  -0.7587  -0.0278
     1.1801   1.1801   1.1855   1.2806   1.2806   1.3163   6.7170   7.3708
     7.7879   7.8331   8.2954   8.2954   8.3676   8.9421

          k = 0.2500 0.0000 0.0000 ( 17628 PWs)   bands (ev):

   -18.2537 -13.6898 -13.6688 -13.5844 -13.5844 -13.5840 -11.2559 -10.8416
   -10.7466  -5.0278  -5.0264  -5.0264  -4.2258  -0.7552  -0.7552   0.0340
     1.1746   1.1746   1.1813   1.2774   1.2774   1.3225   6.7491   7.2763
     7.8113   7.8676   8.2967   8.2967   8.3850   8.9686

          k = 0.2625 0.0000 0.0000 ( 17624 PWs)   bands (ev):

   -18.2537 -13.6898 -13.6671 -13.5844 -13.5844 -13.5840 -11.2502 -10.8503
   -10.7465  -5.0276  -5.0261  -5.0261  -4.2487  -0.7517  -0.7517   0.0949
     1.1691   1.1691   1.1771   1.2743   1.2743   1.3307   6.7707   7.1918
     7.8374   7.9028   8.2972   8.2972   8.4029   8.9975

          k = 0.2750 0.0000 0.0000 ( 17616 PWs)   bands (ev):

   -18.2537 -13.6898 -13.6654 -13.5844 -13.5844 -13.5840 -11.2442 -10.8591
   -10.7464  -5.0274  -5.0258  -5.0258  -4.2710  -0.7482  -0.7482   0.1543
     1.1636   1.1636   1.1729   1.2712   1.2712   1.3410   6.7705   7.1298
     7.8650   7.9384   8.2969   8.2969   8.4215   9.0287

          k = 0.2875 0.0000 0.0000 ( 17616 PWs)   bands (ev):

   -18.2536 -13.6898 -13.6638 -13.5845 -13.5845 -13.5840 -11.2381 -10.8682
   -10.7464  -5.0272  -5.0255  -5.0255  -4.2926  -0.7447  -0.7447   0.2116
     1.1580   1.1580   1.1688   1.2683   1.2683   1.3539   6.7363   7.1033
     7.8937   7.9743   8.2960   8.2960   8.4406   9.0620

          k = 0.3000 0.0000 0.0000 ( 17624 PWs)   bands (ev):

   -18.2536 -13.6897 -13.6622 -13.5845 -13.5845 -13.5840 -11.2317 -10.8774
   -10.7463  -5.0270  -5.0252  -5.0252  -4.3134  -0.7413  -0.7413   0.2664
     1.1525   1.1525   1.1648   1.2655   1.2655   1.3694   6.6702   7.1106
     7.9231   8.0103   8.2945   8.2945   8.4602   9.0973

          k = 0.3125 0.0000 0.0000 ( 17616 PWs)   bands (ev):

   -18.2536 -13.6897 -13.6606 -13.5845 -13.5845 -13.5840 -11.2252 -10.8867
   -10.7463  -5.0268  -5.0249  -5.0249  -4.3332  -0.7379  -0.7379   0.3181
     1.1470   1.1470   1.1609   1.2628   1.2628   1.3878   6.5857   7.1386
     7.9528   8.0461   8.2926   8.2926   8.4801   9.1344

          k = 0.3250 0.0000 0.0000 ( 17612 PWs)   bands (ev):

   -18.2536 -13.6897 -13.6591 -13.5845 -13.5845 -13.5840 -11.2185 -10.8961
   -10.7462  -5.0266  -5.0246  -5.0246  -4.3521  -0.7346  -0.7346   0.3662
     1.1417   1.1417   1.1571   1.2603   1.2603   1.4090   6.4934   7.1772
     7.9826   8.0815   8.2903   8.2903   8.5003   9.1730

          k = 0.3375 0.0000 0.0000 ( 17628 PWs)   bands (ev):

   -18.2535 -13.6897 -13.6576 -13.5845 -13.5845 -13.5840 -11.2117 -10.9055
   -10.7462  -5.0265  -5.0243  -5.0243  -4.3700  -0.7315  -0.7315   0.4103
     1.1365   1.1365   1.1535   1.2579   1.2579   1.4331   6.3988   7.2209
     8.0123   8.1163   8.2877   8.2877   8.5206   9.2130

          k = 0.3500 0.0000 0.0000 ( 17640 PWs)   bands (ev):

   -18.2535 -13.6897 -13.6562 -13.5846 -13.5846 -13.5840 -11.2047 -10.9150
   -10.7462  -5.0263  -5.0240  -5.0240  -4.3867  -0.7284  -0.7284   0.4503
     1.1315   1.1315   1.1501   1.2556   1.2556   1.4598   6.3049   7.2671
     8.0416   8.1501   8.2851   8.2851   8.5409   9.2540

          k = 0.3625 0.0000 0.0000 ( 17648 PWs)   bands (ev):

   -18.2535 -13.6897 -13.6549 -13.5846 -13.5846 -13.5840 -11.1977 -10.9243
   -10.7461  -5.0261  -5.0238  -5.0238  -4.4023  -0.7256  -0.7256   0.4859
     1.1268   1.1268   1.1469   1.2535   1.2535   1.4888   6.2136   7.3142
     8.0703   8.1828   8.2823   8.2823   8.5611   9.2959

          k = 0.3750 0.0000 0.0000 ( 17624 PWs)   bands (ev):

   -18.2535 -13.6897 -13.6537 -13.5846 -13.5846 -13.5840 -11.1907 -10.9335
   -10.7461  -5.0260  -5.0235  -5.0235  -4.4166  -0.7229  -0.7229   0.5173
     1.1223   1.1223   1.1439   1.2515   1.2515   1.5195   6.1260   7.3610
     8.0981   8.2139   8.2796   8.2796   8.5810   9.3382

          k = 0.3875 0.0000 0.0000 ( 17632 PWs)   bands (ev):

   -18.2535 -13.6897 -13.6525 -13.5846 -13.5846 -13.5840 -11.1837 -10.9425
   -10.7460  -5.0258  -5.0233  -5.0233  -4.4297  -0.7204  -0.7204   0.5444
     1.1182   1.1182   1.1411   1.2498   1.2498   1.5511   6.0434   7.4067
     8.1248   8.2433   8.2769   8.2769   8.6003   9.3806

          k = 0.4000 0.0000 0.0000 ( 17632 PWs)   bands (ev):

   -18.2534 -13.6897 -13.6515 -13.5846 -13.5846 -13.5840 -11.1769 -10.9512
   -10.7460  -5.0257  -5.0231  -5.0231  -4.4416  -0.7181  -0.7181   0.5676
     1.1144   1.1144   1.1385   1.2481   1.2481   1.5829   5.9665   7.4504
     8.1501   8.2706   8.2744   8.2744   8.6188   9.4226

          k = 0.4125 0.0000 0.0000 ( 17628 PWs)   bands (ev):

   -18.2534 -13.6897 -13.6505 -13.5847 -13.5847 -13.5840 -11.1702 -10.9595
   -10.7460  -5.0256  -5.0229  -5.0229  -4.4521  -0.7160  -0.7160   0.5871
     1.1110   1.1110   1.1363   1.2467   1.2467   1.6140   5.8962   7.4914
     8.1737   8.2720   8.2720   8.2956   8.6363   9.4638

          k = 0.4250 0.0000 0.0000 ( 17644 PWs)   bands (ev):

   -18.2534 -13.6897 -13.6497 -13.5847 -13.5847 -13.5840 -11.1639 -10.9673
   -10.7460  -5.0255  -5.0227  -5.0227  -4.4612  -0.7142  -0.7142   0.6033
     1.1079   1.1079   1.1343   1.2455   1.2455   1.6435   5.8334   7.5290
     8.1952   8.2699   8.2699   8.3179   8.6525   9.5032

          k = 0.4375 0.0000 0.0000 ( 17644 PWs)   bands (ev):

   -18.2534 -13.6897 -13.6490 -13.5847 -13.5847 -13.5840 -11.1581 -10.9744
   -10.7459  -5.0254  -5.0226  -5.0226  -4.4690  -0.7126  -0.7126   0.6163
     1.1053   1.1053   1.1326   1.2444   1.2444   1.6703   5.7787   7.5624
     8.2144   8.2681   8.2681   8.3372   8.6669   9.5402

          k = 0.4500 0.0000 0.0000 ( 17616 PWs)   bands (ev):

   -18.2534 -13.6897 -13.6484 -13.5847 -13.5847 -13.5840 -11.1529 -10.9806
   -10.7459  -5.0253  -5.0225  -5.0225  -4.4754  -0.7113  -0.7113   0.6266
     1.1032   1.1032   1.1312   1.2435   1.2435   1.6936   5.7329   7.5909
     8.2308   8.2665   8.2665   8.3535   8.6793   9.5735

          k = 0.4625 0.0000 0.0000 ( 17608 PWs)   bands (ev):

   -18.2534 -13.6897 -13.6480 -13.5847 -13.5847 -13.5840 -11.1486 -10.9857
[...]

          k = 0.1125 0.1125 0.0000 ( 17589 PWs)   bands (ev):

   -18.2539 -13.6873 -13.6822 -13.5842 -13.5841 -13.5841 -11.2899 -10.7772
   -10.7575  -5.0314  -5.0286  -5.0271  -4.0639  -0.7777  -0.6472  -0.5173
     1.1571   1.2113   1.2473   1.2865   1.2974   1.3384   6.4828   7.6098
     7.6189   8.1708   8.2291   8.3150   8.3169   8.6448

          k = 0.1000 0.1000 0.0000 ( 17609 PWs)   bands (ev):

   -18.2539 -13.6878 -13.6838 -13.5842 -13.5841 -13.5841 -11.2947 -10.7712
   -10.7554  -5.0313  -5.0290  -5.0277  -4.0277  -0.7820  -0.6784  -0.5722
     1.1743   1.2163   1.2460   1.2910   1.3031   1.3348   6.4384   7.5814
     7.5905   8.1998   8.2255   8.2926   8.4076   8.6483

          k = 0.0875 0.0875 0.0000 ( 17615 PWs)   bands (ev):

   -18.2539 -13.6882 -13.6852 -13.5841 -13.5841 -13.5841 -11.2990 -10.7657
   -10.7535  -5.0311  -5.0294  -5.0283  -3.9943  -0.7858  -0.7062  -0.6223
     1.1895   1.2208   1.2443   1.2963   1.3082   1.3319   6.3983   7.5555
     7.5638   8.2151   8.2211   8.2709   8.4931   8.6641

          k = 0.0750 0.0750 0.0000 ( 17625 PWs)   bands (ev):

   -18.2540 -13.6886 -13.6864 -13.5841 -13.5841 -13.5841 -11.3027 -10.7609
   -10.7518  -5.0310  -5.0297  -5.0288  -3.9642  -0.7891  -0.7304  -0.6671
     1.2024   1.2248   1.2426   1.3021   1.3126   1.3297   6.3628   7.5326
     7.5395   8.2163   8.2199   8.2518   8.5701   8.6882

          k = 0.0625 0.0625 0.0000 ( 17629 PWs)   bands (ev):

   -18.2540 -13.6890 -13.6874 -13.5841 -13.5841 -13.5841 -11.3058 -10.7568
   -10.7504  -5.0308  -5.0299  -5.0293  -3.9379  -0.7919  -0.7511  -0.7060
     1.2131   1.2282   1.2409   1.3080   1.3164   1.3280   6.3322   7.5128
     7.5182   8.2115   8.2181   8.2356   8.6376   8.7157

          k = 0.0500 0.0500 0.0000 ( 17645 PWs)   bands (ev):

   -18.2540 -13.6893 -13.6883 -13.5841 -13.5841 -13.5841 -11.3084 -10.7534
   -10.7493  -5.0307  -5.0302  -5.0297  -3.9158  -0.7942  -0.7680  -0.7386
     1.2216   1.2311   1.2393   1.3135   1.3195   1.3268   6.3068   7.4965
     7.5003   8.2071   8.2131   8.2222   8.6944   8.7427

          k = 0.0375 0.0375 0.0000 ( 17649 PWs)   bands (ev):

   -18.2540 -13.6895 -13.6889 -13.5841 -13.5841 -13.5841 -11.3104 -10.7507
   -10.7484  -5.0307  -5.0303  -5.0301  -3.8981  -0.7960  -0.7812  -0.7644
     1.2281   1.2333   1.2380   1.3183   1.3219   1.3260   6.2867   7.4838
     7.4860   8.2034   8.2075   8.2117   8.7396   8.7661

          k = 0.0250 0.0250 0.0000 ( 17637 PWs)   bands (ev):

   -18.2540 -13.6897 -13.6894 -13.5841 -13.5841 -13.5841 -11.3119 -10.7488
   -10.7477  -5.0306  -5.0305  -5.0304  -3.8853  -0.7972  -0.7907  -0.7831
     1.2326   1.2349   1.2370   1.3220   1.3237   1.3255   6.2723   7.4746
     7.4756   8.2006   8.2026   8.2042   8.7724   8.7841

          k = 0.0125 0.0125 0.0000 ( 17633 PWs)   bands (ev):

   -18.2540 -13.6898 -13.6897 -13.5841 -13.5841 -13.5841 -11.3128 -10.7476
   -10.7474  -5.0306  -5.0305  -5.0305  -3.8775  -0.7980  -0.7964  -0.7945
     1.2353   1.2358   1.2364   1.3243   1.3247   1.3252   6.2636   7.4691
     7.4693   8.1988   8.1993   8.1997   8.7924   8.7953

          k = 0.0000 0.0000 0.0000 ( 17557 PWs)   bands (ev):

   -18.2540 -13.6898 -13.6898 -13.5841 -13.5841 -13.5841 -11.3131 -10.7472
   -10.7472  -5.0306  -5.0306  -5.0306  -3.8748  -0.7983  -0.7983  -0.7983
     1.2362   1.2362   1.2362   1.3251   1.3251   1.3251   6.2607   7.4672
     7.4672   8.1982   8.1982   8.1982   8.7991   8.7991

          k = 0.0125 0.0125 0.0125 ( 17647 PWs)   bands (ev):

   -18.2540 -13.6897 -13.6897 -13.5841 -13.5841 -13.5841 -11.3126 -10.7476
   -10.7476  -5.0306  -5.0306  -5.0305  -3.8788  -0.7962  -0.7962  -0.7934
     1.2351   1.2351   1.2368   1.3237   1.3250   1.3250   6.2651   7.4702
     7.4702   8.1989   8.2003   8.2003   8.7924   8.7924

          k = 0.0250 0.0250 0.0250 ( 17632 PWs)   bands (ev):

   -18.2540 -13.6894 -13.6894 -13.5841 -13.5841 -13.5841 -11.3113 -10.7488
   -10.7488  -5.0306  -5.0306  -5.0302  -3.8905  -0.7902  -0.7902  -0.7789
     1.2319   1.2319   1.2386   1.3195   1.3248   1.3248   6.2781   7.4790
     7.4790   8.2007   8.2064   8.2064   8.7727   8.7727

          k = 0.0375 0.0375 0.0375 ( 17644 PWs)   bands (ev):

   -18.2540 -13.6889 -13.6889 -13.5841 -13.5841 -13.5841 -11.3092 -10.7507
   -10.7507  -5.0306  -5.0306  -5.0297  -3.9096  -0.7800  -0.7800  -0.7550
     1.2265   1.2265   1.2415   1.3126   1.3248   1.3248   6.2996   7.4936
     7.4936   8.2030   8.2161   8.2161   8.7408   8.7408

          k = 0.0500 0.0500 0.0500 ( 17632 PWs)   bands (ev):

   -18.2540 -13.6883 -13.6883 -13.5841 -13.5841 -13.5841 -11.3061 -10.7533
   -10.7533  -5.0305  -5.0305  -5.0291  -3.9359  -0.7659  -0.7659  -0.7222
     1.2187   1.2187   1.2457   1.3034   1.3250   1.3250   6.3293   7.5135
     7.5135   8.2043   8.2285   8.2285   8.6984   8.6984

          k = 0.0625 0.0625 0.0625 ( 17632 PWs)   bands (ev):

   -18.2540 -13.6874 -13.6874 -13.5841 -13.5841 -13.5841 -11.3023 -10.7567
   -10.7567  -5.0306  -5.0306  -5.0283  -3.9688  -0.7478  -0.7478  -0.6810
     1.2085   1.2085   1.2510   1.2920   1.3257   1.3257   6.3666   7.5384
     7.5384   8.2025   8.2417   8.2417   8.6484   8.6484

          k = 0.0750 0.0750 0.0750 ( 17617 PWs)   bands (ev):

   -18.2539 -13.6864 -13.6864 -13.5841 -13.5841 -13.5841 -11.2976 -10.7608
   -10.7608  -5.0306  -5.0306  -5.0274  -4.0076  -0.7257  -0.7257  -0.6322
     1.1959   1.1959   1.2574   1.2789   1.3270   1.3270   6.4112   7.5677
     7.5677   8.1950   8.2517   8.2517   8.5961   8.5961

          k = 0.0875 0.0875 0.0875 ( 17611 PWs)   bands (ev):

   -18.2539 -13.6852 -13.6852 -13.5841 -13.5841 -13.5841 -11.2921 -10.7656
   -10.7656  -5.0306  -5.0306  -5.0264  -4.0517  -0.6998  -0.6998  -0.5765
     1.1810   1.1810   1.2645   1.2649   1.3291   1.3291   6.4621   7.6005
     7.6005   8.1787   8.2500   8.2500   8.5513   8.5513

          k = 0.1000 0.1000 0.1000 ( 17629 PWs)   bands (ev):

   -18.2539 -13.6838 -13.6838 -13.5842 -13.5842 -13.5842 -11.2858 -10.7710
   -10.7710  -5.0307  -5.0307  -5.0253  -4.1003  -0.6700  -0.6700  -0.5146
     1.1639   1.1639   1.2494   1.2735   1.3319   1.3319   6.5187   7.6354
     7.6354   8.1510   8.2247   8.2247   8.5278   8.5278

          k = 0.1125 0.1125 0.1125 ( 17644 PWs)   bands (ev):

   -18.2538 -13.6822 -13.6822 -13.5842 -13.5842 -13.5842 -11.2787 -10.7770
   -10.7770  -5.0308  -5.0308  -5.0242  -4.1530  -0.6364  -0.6364  -0.4475
     1.1448   1.1448   1.2341   1.2832   1.3355   1.3355   6.5798   7.6700
     7.6700   8.1106   8.1717   8.1717   8.5327   8.5327

          k = 0.1250 0.1250 0.1250 ( 17656 PWs)   bands (ev):

   -18.2538 -13.6805 -13.6805 -13.5842 -13.5842 -13.5842 -11.2710 -10.7836
   -10.7836  -5.0310  -5.0310  -5.0231  -4.2088  -0.5991  -0.5991  -0.3761
     1.1241   1.1241   1.2193   1.2937   1.3398   1.3398   6.6442   7.6995
     7.6995   8.0579   8.1021   8.1021   8.5600   8.5600

          k = 0.1375 0.1375 0.1375 ( 17626 PWs)   bands (ev):

   -18.2537 -13.6787 -13.6787 -13.5843 -13.5843 -13.5843 -11.2625 -10.7908
   -10.7908  -5.0312  -5.0312  -5.0221  -4.2673  -0.5582  -0.5582  -0.3012
     1.1019   1.1019   1.2057   1.3053   1.3449   1.3449   6.7103   7.7120
     7.7120   7.9946   8.0360   8.0360   8.6014   8.6014

          k = 0.1500 0.1500 0.1500 ( 17608 PWs)   bands (ev):

   -18.2536 -13.6767 -13.6767 -13.5843 -13.5843 -13.5843 -11.2534 -10.7984
   -10.7984  -5.0315  -5.0315  -5.0212  -4.3279  -0.5139  -0.5139  -0.2238
     1.0786   1.0786   1.1941   1.3176   1.3506   1.3506   6.7760   7.6864
     7.6864   7.9238   7.9997   7.9997   8.6518   8.6518

          k = 0.1625 0.1625 0.1625 ( 17608 PWs)   bands (ev):

   -18.2536 -13.6746 -13.6746 -13.5844 -13.5844 -13.5844 -11.2436 -10.8064
   -10.8064  -5.0319  -5.0319  -5.0203  -4.3901  -0.4661  -0.4661  -0.1449
     1.0543   1.0543   1.1854   1.3308   1.3571   1.3571   6.8383   7.6133
     7.6133   7.8490   8.0054   8.0054   8.7083   8.7083

          k = 0.1750 0.1750 0.1750 ( 17626 PWs)   bands (ev):

   -18.2535 -13.6724 -13.6724 -13.5844 -13.5844 -13.5844 -11.2333 -10.8149
   -10.8149  -5.0323  -5.0323  -5.0197  -4.4532  -0.4150  -0.4150  -0.0658
     1.0293   1.0293   1.1806   1.3447   1.3642   1.3642   6.8931   7.5088
     7.5088   7.7752   8.0382   8.0382   8.7689   8.7689

          k = 0.1875 0.1875 0.1875 ( 17617 PWs)   bands (ev):

   -18.2534 -13.6701 -13.6701 -13.5844 -13.5844 -13.5844 -11.2225 -10.8236
   -10.8236  -5.0328  -5.0328  -5.0192  -4.5170  -0.3609  -0.3609   0.0124
     1.0038   1.0038   1.1810   1.3593   1.3720   1.3720   6.9341   7.3882
     7.3882   7.7090   8.0839   8.0839   8.8319   8.8319

          k = 0.2000 0.2000 0.2000 ( 17656 PWs)   bands (ev):

   -18.2534 -13.6677 -13.6677 -13.5845 -13.5845 -13.5845 -11.2112 -10.8326
   -10.8326  -5.0334  -5.0334  -5.0190  -4.5810  -0.3037  -0.3037   0.0882
     0.9781   0.9781   1.1877   1.3745   1.3805   1.3805   6.9530   7.2589
     7.2589   7.6587   8.1357   8.1357   8.8958   8.8958

          k = 0.2125 0.2125 0.2125 ( 17659 PWs)   bands (ev):

   -18.2533 -13.6653 -13.6653 -13.5845 -13.5845 -13.5845 -11.1995 -10.8419
   -10.8419  -5.0342  -5.0342  -5.0190  -4.6448  -0.2438  -0.2438   0.1601
     0.9523   0.9523   1.2022   1.3895   1.3895   1.3901   6.9418   7.1243
     7.1243   7.6324   8.1906   8.1906   8.9589   8.9589

          k = 0.2250 0.2250 0.2250 ( 17671 PWs)   bands (ev):

   -18.2532 -13.6627 -13.6627 -13.5846 -13.5846 -13.5846 -11.1875 -10.8513
   -10.8513  -5.0349  -5.0349  -5.0193  -4.7080  -0.1813  -0.1813   0.2267
     0.9267   0.9267   1.2259   1.3992   1.3992   1.4062   6.8978   6.9864
     6.9864   7.6326   8.2468   8.2468   9.0196   9.0196

          k = 0.2375 0.2375 0.2375 ( 17653 PWs)   bands (ev):

   -18.2532 -13.6602 -13.6602 -13.5846 -13.5846 -13.5846 -11.1752 -10.8608
   -10.8608  -5.0358  -5.0358  -5.0199  -4.7705  -0.1165  -0.1165   0.2866
     0.9014   0.9014   1.2601   1.4094   1.4094   1.4226   6.8258   6.8463
     6.8463   7.6544   8.3030   8.3030   9.0763   9.0763

          k = 0.2500 0.2500 0.2500 ( 17665 PWs)   bands (ev):

   -18.2531 -13.6576 -13.6576 -13.5847 -13.5847 -13.5847 -11.1627 -10.8703
   -10.8703  -5.0368  -5.0368  -5.0207  -4.8318  -0.0496  -0.0496   0.3388
     0.8767   0.8767   1.3054   1.4202   1.4202   1.4392   6.7051   6.7051
     6.7335   7.6896   8.3583   8.3583   9.1274   9.1274

          k = 0.2625 0.2625 0.2625 ( 17653 PWs)   bands (ev):

   -18.2530 -13.6550 -13.6550 -13.5847 -13.5847 -13.5847 -11.1500 -10.8798
   -10.8798  -5.0378  -5.0378  -5.0218  -4.8917   0.0191   0.0191   0.3829
     0.8527   0.8527   1.3621   1.4316   1.4316   1.4560   6.5635   6.5635
     6.6281   7.7310   8.4114   8.4114   9.1720   9.1720

          k = 0.2750 0.2750 0.2750 ( 17653 PWs)   bands (ev):

   -18.2530 -13.6524 -13.6524 -13.5848 -13.5848 -13.5848 -11.1373 -10.8893
   -10.8893  -5.0390  -5.0390  -5.0232  -4.9501   0.0893   0.0893   0.4193
     0.8295   0.8295   1.4297   1.4434   1.4434   1.4728   6.4223   6.4223
     6.5140   7.7736   8.4612   8.4612   9.2095   9.2095

          k = 0.2875 0.2875 0.2875 ( 17653 PWs)   bands (ev):

   -18.2529 -13.6498 -13.6498 -13.5849 -13.5849 -13.5848 -11.1246 -10.8986
   -10.8986  -5.0401  -5.0401  -5.0248  -5.0065   0.1604   0.1604   0.4487
     0.8074   0.8074   1.4557   1.4557   1.4895   1.5071   6.2819   6.2819
     6.3946   7.8143   8.5062   8.5062   9.2403   9.2403

          k = 0.3000 0.3000 0.3000 ( 17674 PWs)   bands (ev):

   -18.2528 -13.6472 -13.6472 -13.5849 -13.5849 -13.5849 -11.1120 -10.9077
   -10.9077  -5.0609  -5.0414  -5.0414  -5.0267   0.2321   0.2321   0.4723
     0.7867   0.7867   1.4685   1.4685   1.5060   1.5930   6.1431   6.1431
     6.2718   7.8510   8.5448   8.5448   9.1504   9.2657

          k = 0.3125 0.3125 0.3125 ( 17674 PWs)   bands (ev):

   -18.2528 -13.6447 -13.6447 -13.5849 -13.5849 -13.5849 -11.0997 -10.9165
   -10.9165  -5.1130  -5.0426  -5.0426  -5.0288   0.3037   0.3037   0.4911
     0.7675   0.7675   1.4817   1.4817   1.5222   1.6859   6.0064   6.0064
     6.1471   7.8822   8.5756   8.5756   9.0465   9.2879

          k = 0.3250 0.3250 0.3250 ( 17667 PWs)   bands (ev):

   -18.2527 -13.6423 -13.6423 -13.5850 -13.5850 -13.5850 -11.0875 -10.9251
   -10.9251  -5.1627  -5.0439  -5.0439  -5.0310   0.3743   0.3743   0.5062
     0.7504   0.7504   1.4953   1.4953   1.5380   1.7843   5.8725   5.8725
     6.0214   7.9071   8.5973   8.5973   8.9479   9.3090

          k = 0.3375 0.3375 0.3375 ( 17655 PWs)   bands (ev):

   -18.2526 -13.6400 -13.6400 -13.5850 -13.5850 -13.5850 -11.0758 -10.9333
   -10.9333  -5.2097  -5.0452  -5.0452  -5.0334   0.4426   0.4426   0.5186
     0.7362   0.7362   1.5093   1.5093   1.5533   1.8868   5.7420   5.7420
     5.8958   7.9249   8.6094   8.6094   8.8565   9.3311

          k = 0.3500 0.3500 0.3500 ( 17667 PWs)   bands (ev):

   -18.2526 -13.6377 -13.6377 -13.5851 -13.5851 -13.5851 -11.0644 -10.9412
   -10.9412  -5.2540  -5.0465  -5.0465  -5.0358   0.5061   0.5061   0.5289
     0.7269   0.7269   1.5235   1.5235   1.5680   1.9922   5.6156   5.6156
     5.7709   7.9351   8.6119   8.6119   8.7737   9.3553

          k = 0.3625 0.3625 0.3625 ( 17670 PWs)   bands (ev):

   -18.2525 -13.6356 -13.6356 -13.5851 -13.5851 -13.5851 -11.0536 -10.9485
   -10.9485  -5.2953  -5.0477  -5.0477  -5.0383   0.5377   0.5597   0.5597
     0.7268   0.7268   1.5381   1.5381   1.5820   2.0993   5.4940   5.4940
     5.6474   7.9374   8.6060   8.6060   8.7008   9.3817

          k = 0.3750 0.3750 0.3750 ( 17646 PWs)   bands (ev):

   -18.2525 -13.6336 -13.6336 -13.5852 -13.5852 -13.5852 -11.0435 -10.9554
   -10.9554  -5.3335  -5.0490  -5.0490  -5.0408   0.5453   0.5953   0.5953
     0.7438   0.7438   1.5529   1.5529   1.5951   2.2069   5.3780   5.3780
     5.5261   7.9319   8.5933   8.5933   8.6385   9.4098

          k = 0.3875 0.3875 0.3875 ( 17649 PWs)   bands (ev):

   -18.2525 -13.6318 -13.6318 -13.5852 -13.5852 -13.5852 -11.0340 -10.9618
   -10.9618  -5.3685  -5.0501  -5.0501  -5.0432   0.5520   0.6095   0.6095
     0.7800   0.7800   1.5679   1.5679   1.6073   2.3138   5.2685   5.2685
     5.4077   7.9191   8.5759   8.5759   8.5871   9.4384

          k = 0.4000 0.4000 0.4000 ( 17649 PWs)   bands (ev):

   -18.2524 -13.6301 -13.6301 -13.5852 -13.5852 -13.5852 -11.0252 -10.9676
   -10.9676  -5.4002  -5.0512  -5.0512  -5.0456   0.5579   0.6107   0.6107
     0.8265   0.8265   1.5829   1.5829   1.6186   2.4189   5.1664   5.1664
     5.2933   7.9004   8.5462   8.5555   8.5555   9.4664

          k = 0.4125 0.4125 0.4125 ( 17667 PWs)   bands (ev):

   -18.2524 -13.6286 -13.6286 -13.5853 -13.5853 -13.5852 -11.0174 -10.9728
   -10.9728  -5.4284  -5.0522  -5.0522  -5.0477   0.5631   0.6067   0.6067
     0.8746   0.8746   1.5977   1.5977   1.6287   2.5205   5.0727   5.0727
     5.1840   7.8775   8.5146   8.5341   8.5341   9.4926

          k = 0.4250 0.4250 0.4250 ( 17652 PWs)   bands (ev):

   -18.2523 -13.6272 -13.6272 -13.5853 -13.5853 -13.5853 -11.0104 -10.9774
   -10.9774  -5.4530  -5.0531  -5.0531  -5.0497   0.5677   0.6012   0.6012
     0.9200   0.9200   1.6121   1.6121   1.6376   2.6170   4.9884   4.9884
     5.0814   7.8525   8.4909   8.5129   8.5129   9.5162

          k = 0.4375 0.4375 0.4375 ( 17673 PWs)   bands (ev):

   -18.2523 -13.6261 -13.6261 -13.5853 -13.5853 -13.5853 -11.0044 -10.9813
   -10.9813  -5.4740  -5.0539  -5.0539  -5.0515   0.5716   0.5956   0.5956
     0.9604   0.9604   1.6257   1.6257   1.6453   2.7063   4.9146   4.9146
     4.9873   7.8276   8.4736   8.4933   8.4933   9.5366

          k = 0.4500 0.4500 0.4500 ( 17673 PWs)   bands (ev):

   -18.2523 -13.6251 -13.6251 -13.5853 -13.5853 -13.5853 -10.9994 -10.9845
   -10.9845  -5.4913  -5.0545  -5.0545  -5.0530   0.5749   0.5906   0.5906
     0.9947   0.9947   1.6380   1.6380   1.6517   2.7858   4.8523   4.8523
     4.9041   7.8047   8.4613   8.4761   8.4761   9.5535

          k = 0.4625 0.4625 0.4625 ( 17697 PWs)   bands (ev):

   -18.2523 -13.6244 -13.6244 -13.5853 -13.5853 -13.5853 -10.9954 -10.9871
   -10.9871  -5.5048  -5.0550  -5.0550  -5.0542   0.5775   0.5865   0.5865
     1.0219   1.0219   1.6484   1.6484   1.6567   2.8527   4.8027   4.8027
     4.8345   7.7854   8.4527   8.4620   8.4620   9.5667

          k = 0.4750 0.4750 0.4750 ( 17688 PWs)   bands (ev):

   -18.2523 -13.6238 -13.6238 -13.5853 -13.5853 -13.5853 -10.9926 -10.9889
   -10.9889  -5.5145  -5.0554  -5.0554  -5.0550   0.5794   0.5834   0.5834
     1.0416   1.0416   1.6564   1.6564   1.6603   2.9037   4.7665   4.7665
     4.7816   7.7708   8.4472   8.4516   8.4516   9.5760

          k = 0.4875 0.4875 0.4875 ( 17694 PWs)   bands (ev):

   -18.2523 -13.6235 -13.6235 -13.5853 -13.5853 -13.5853 -10.9909 -10.9900
   -10.9900  -5.5203  -5.0557  -5.0557  -5.0556   0.5805   0.5816   0.5816
     1.0536   1.0536   1.6615   1.6615   1.6625   2.9358   4.7445   4.7445
     4.7484   7.7618   8.4441   8.4452   8.4452   9.5816

          k = 0.5000 0.5000 0.5000 ( 17784 PWs)   bands (ev):

   -18.2523 -13.6234 -13.6234 -13.5854 -13.5854 -13.5854 -10.9903 -10.9903
   -10.9903  -5.5223  -5.0557  -5.0557  -5.0557   0.5809   0.5809   0.5809
     1.0576   1.0576   1.6632   1.6632   1.6632   2.9468   4.7371   4.7371
     4.7371   7.7587   8.4431   8.4431   8.4431   9.5835

     Writing all to output data dir ./tmp/CsPbBr3.save/ :
     XML data file, pseudopotentials, collected wavefunctions

     init_run     :      1.07s CPU      1.18s WALL (       1 calls)
     electrons    :   1517.64s CPU   1645.03s WALL (       1 calls)

     Called by init_run:
     wfcinit      :      0.00s CPU      0.00s WALL (       1 calls)
     wfcinit:atom :      0.34s CPU      0.40s WALL (     161 calls)
     wfcinit:wfcr :     20.62s CPU     21.88s WALL (     161 calls)
     potinit      :      0.13s CPU      0.14s WALL (       1 calls)
     hinit0       :      0.40s CPU      0.41s WALL (       1 calls)

     Called by electrons:
     c_bands      :   1517.64s CPU   1645.02s WALL (       1 calls)
     v_of_rho     :      0.07s CPU      0.07s WALL (       1 calls)
     v_h          :      0.00s CPU      0.00s WALL (       1 calls)
     v_xc         :      0.06s CPU      0.07s WALL (       1 calls)
     newd         :      0.29s CPU      0.37s WALL (       1 calls)
     PAW_pot      :      0.06s CPU      0.06s WALL (       1 calls)

     Called by c_bands:
     init_us_2    :      0.78s CPU      0.86s WALL (     161 calls)
     cegterg      :   1491.34s CPU   1617.02s WALL (     831 calls)

     Called by sum_band:

     Called by *egterg:
     cdiaghg      :     12.06s CPU     12.27s WALL (   15497 calls)
     cegterg:over :    116.68s CPU    137.49s WALL (   15336 calls)
     cegterg:upda :     68.64s CPU     83.23s WALL (   15336 calls)
     cegterg:last :    115.62s CPU    137.35s WALL (    9785 calls)
     h_psi        :   1093.64s CPU   1140.97s WALL (   16328 calls)
     s_psi        :     88.05s CPU    107.73s WALL (   16328 calls)
     g_psi        :      4.65s CPU      4.71s WALL (   15336 calls)

     Called by h_psi:
     h_psi:calbec :    108.12s CPU    127.51s WALL (   16328 calls)
     vloc_psi     :    883.20s CPU    888.60s WALL (   16328 calls)
     add_vuspsi   :     99.64s CPU    121.70s WALL (   16328 calls)

     General routines
     calbec       :    108.10s CPU    127.49s WALL (   16328 calls)
     fft          :      0.03s CPU      0.03s WALL (      12 calls)
     fftw         :    780.61s CPU    785.31s WALL (  559618 calls)
     davcio       :      0.00s CPU      0.60s WALL (     322 calls)

     Parallel routines

     PAW routines
     PAW_pot      :      0.06s CPU      0.06s WALL (       1 calls)

     PWSCF        :  25m19.00s CPU  27m27.69s WALL


   This run was terminated on:  15: 0: 4  29Dec2025            

=------------------------------------------------------------------------------=
   JOB DONE.
=------------------------------------------------------------------------------=
