
     Program PWSCF v.7.3.1 starts on 19Dec2025 at 17:26:10 

     This program is part of the open-source Quantum ESPRESSO suite
     for quantum simulation of materials; please cite
         "P. Giannozzi et al., J. Phys.:Condens. Matter 21 395502 (2009);
         "P. Giannozzi et al., J. Phys.:Condens. Matter 29 465901 (2017);
         "P. Giannozzi et al., J. Chem. Phys. 152 154105 (2020);
          URL http://www.quantum-espresso.org", 
     in publications or presentations arising from this work. More details at
     http://www.quantum-espresso.org/quote

     Parallel version (MPI), running on     1 processors

     MPI processes distributed on     1 nodes
     0 MiB available memory on the printing compute node when the environment starts

     Reading input from cspbbr3_relax.in

     Current dimensions of program PWSCF are:
     Max number of different atomic species (ntypx) = 10
     Max number of k-points (npk) =  40000
     Max angular momentum in pseudopotentials (lmaxx) =  4
     file Pb.pbe-dn-kjpaw_psl.0.2.2.UPF: wavefunction(s)  6S renormalized
     Message from routine setup:
     using ibrav=0 with symmetry is DISCOURAGED, use correct ibrav instead

     Subspace diagonalization in iterative solution of the eigenvalue problem:
     a serial algorithm will be used


     G-vector sticks info
     --------------------
     sticks:   dense  smooth     PW     G-vecs:    dense   smooth      PW
     Sum        3133    3133    877               131995   131995   19381

     Using Slab Decomposition



     bravais-lattice index     =            0
     lattice parameter (alat)  =      11.0927  a.u.
     unit-cell volume          =    1364.9317 (a.u.)^3
     number of atoms/cell      =            5
     number of atomic types    =            3
     number of electrons       =        44.00
     number of Kohn-Sham states=           22
     kinetic-energy cutoff     =      80.0000  Ry
     charge density cutoff     =     320.0000  Ry
     scf convergence threshold =      1.0E-08
     mixing beta               =       0.7000
     number of iterations used =            8  plain     mixing
     energy convergence thresh.=      1.0E-04
     force convergence thresh. =      1.0E-03
     press convergence thresh. =      5.0E-01
     Exchange-correlation=  SLA  PW   PBX  PBC
                           (   1   4   3   4   0   0   0)
     nstep                     =           50


     celldm(1)=  11.092692  celldm(2)=   0.000000  celldm(3)=   0.000000
     celldm(4)=   0.000000  celldm(5)=   0.000000  celldm(6)=   0.000000

     crystal axes: (cart. coord. in units of alat)
               a(1) = (   1.000000   0.000000   0.000000 )  
               a(2) = (   0.000000   1.000000   0.000000 )  
               a(3) = (   0.000000   0.000000   1.000000 )  

     reciprocal axes: (cart. coord. in units 2 pi/alat)
               b(1) = (  1.000000  0.000000  0.000000 )  
               b(2) = (  0.000000  1.000000  0.000000 )  
               b(3) = (  0.000000  0.000000  1.000000 )  


     PseudoPot. # 1 for Cs read from file:
     ./Cs.nc.z_9.oncvpsp3.dojo.v4-str.UPF
     MD5 check sum: d01c53d012be9123745781bcb8b00a26
     Pseudo is Norm-conserving + core correction, Zval =  9.0
     Generated using ONCVPSP code by D. R. Hamann
     Using radial grid of 2414 points,  8 beta functions with: 
                l(1) =   0
                l(2) =   0
                l(3) =   1
                l(4) =   1
                l(5) =   2
                l(6) =   2
                l(7) =   3
                l(8) =   3

     PseudoPot. # 2 for Pb read from file:
     ./Pb.pbe-dn-kjpaw_psl.0.2.2.UPF
     MD5 check sum: 9d431e6316058b74ade52399a6cf67da
     Pseudo is Projector augmented-wave + core cor, Zval = 14.0
     Generated using "atomic" code by A. Dal Corso  v.5.0.99 svn rev. 10869
     Shape of augmentation charge: PSQ
     Using radial grid of 1281 points,  6 beta functions with: 
                l(1) =   0
                l(2) =   0
                l(3) =   1
                l(4) =   1
                l(5) =   2
                l(6) =   2
     Q(r) pseudized with 0 coefficients 


     PseudoPot. # 3 for Br read from file:
     ./br_pbe_v1.4.uspp.F.UPF
     MD5 check sum: d3ffb7b29f6225aa16fe06858fb2a80b
     Pseudo is Ultrasoft + core correction, Zval =  7.0
     Generated by new atomic code, or converted to UPF format
     Using radial grid of  879 points,  6 beta functions with: 
                l(1) =   0
                l(2) =   0
                l(3) =   1
                l(4) =   1
                l(5) =   2
                l(6) =   2
     Q(r) pseudized with  8 coefficients,  rinner =    1.100   1.100   1.100
                                                       1.100   1.100

     atomic species   valence    mass     pseudopotential
     Cs                9.00   132.90545     Cs( 1.00)
     Pb               14.00   207.20000     Pb( 1.00)
     Br                7.00    79.90400     Br( 1.00)

     48 Sym. Ops., with inversion, found



   Cartesian axes

     site n.     atom                  positions (alat units)
         1        Cs     tau(   1) = (   0.0000000   0.0000000   0.0000000  )
         2        Pb     tau(   2) = (   0.5000000   0.5000000   0.5000000  )
         3        Br     tau(   3) = (   0.5000000   0.5000000   0.0000000  )
         4        Br     tau(   4) = (   0.5000000   0.0000000   0.5000000  )
         5        Br     tau(   5) = (   0.0000000   0.5000000   0.5000000  )

     number of k points=    20
                       cart. coord. in units 2pi/alat
        k(    1) = (   0.0000000   0.0000000   0.0000000), wk =   0.0092593
        k(    2) = (   0.0000000   0.0000000   0.1666667), wk =   0.0555556
        k(    3) = (   0.0000000   0.0000000   0.3333333), wk =   0.0555556
        k(    4) = (   0.0000000   0.0000000  -0.5000000), wk =   0.0277778
        k(    5) = (   0.0000000   0.1666667   0.1666667), wk =   0.1111111
        k(    6) = (   0.0000000   0.1666667   0.3333333), wk =   0.2222222
        k(    7) = (   0.0000000   0.1666667  -0.5000000), wk =   0.1111111
        k(    8) = (   0.0000000   0.3333333   0.3333333), wk =   0.1111111
        k(    9) = (   0.0000000   0.3333333  -0.5000000), wk =   0.1111111
        k(   10) = (   0.0000000  -0.5000000  -0.5000000), wk =   0.0277778
        k(   11) = (   0.1666667   0.1666667   0.1666667), wk =   0.0740741
        k(   12) = (   0.1666667   0.1666667   0.3333333), wk =   0.2222222
        k(   13) = (   0.1666667   0.1666667  -0.5000000), wk =   0.1111111
        k(   14) = (   0.1666667   0.3333333   0.3333333), wk =   0.2222222
        k(   15) = (   0.1666667   0.3333333  -0.5000000), wk =   0.2222222
        k(   16) = (   0.1666667  -0.5000000  -0.5000000), wk =   0.0555556
        k(   17) = (   0.3333333   0.3333333   0.3333333), wk =   0.0740741
        k(   18) = (   0.3333333   0.3333333  -0.5000000), wk =   0.1111111
        k(   19) = (   0.3333333  -0.5000000  -0.5000000), wk =   0.0555556
        k(   20) = (  -0.5000000  -0.5000000  -0.5000000), wk =   0.0092593

     Dense  grid:   131995 G-vectors     FFT dimensions: (  64,  64,  64)

     Estimated max dynamical RAM per process >     697.23 MB

     Initial potential from superposition of free atoms

     starting charge      43.9594, renormalised to      44.0000
     Starting wfcs are   26 randomized atomic wfcs
     Checking if some PAW data can be deallocated... 

     total cpu time spent up to now is        4.1 secs

     Self-consistent Calculation

     iteration #  1     ecut=    80.00 Ry     beta= 0.70
     Davidson diagonalization with overlap
     ethr =  1.00E-02,  avg # of iterations =  1.6

     Threshold (ethr) on eigenvalues was too large:
     Diagonalizing with lowered threshold

     Davidson diagonalization with overlap
     ethr =  3.60E-04,  avg # of iterations =  4.4

     total cpu time spent up to now is       19.1 secs

     total energy              =   -1058.27115683 Ry
     estimated scf accuracy    <       0.13882499 Ry

     iteration #  2     ecut=    80.00 Ry     beta= 0.70
     Davidson diagonalization with overlap
     ethr =  3.16E-04,  avg # of iterations =  3.2

     total cpu time spent up to now is       27.9 secs

     total energy              =   -1058.31762993 Ry
     estimated scf accuracy    <       0.03772426 Ry

     iteration #  3     ecut=    80.00 Ry     beta= 0.70
     Davidson diagonalization with overlap
     ethr =  8.57E-05,  avg # of iterations =  3.0

     total cpu time spent up to now is       36.5 secs

     total energy              =   -1058.32575685 Ry
     estimated scf accuracy    <       0.00084259 Ry

     iteration #  4     ecut=    80.00 Ry     beta= 0.70
     Davidson diagonalization with overlap
     ethr =  1.91E-06,  avg # of iterations =  7.2

     total cpu time spent up to now is       50.3 secs

     total energy              =   -1058.32720571 Ry
     estimated scf accuracy    <       0.00031731 Ry

     iteration #  5     ecut=    80.00 Ry     beta= 0.70
     Davidson diagonalization with overlap
     ethr =  7.21E-07,  avg # of iterations =  3.4

     total cpu time spent up to now is       59.2 secs

     total energy              =   -1058.32726597 Ry
     estimated scf accuracy    <       0.00001405 Ry

     iteration #  6     ecut=    80.00 Ry     beta= 0.70
     Davidson diagonalization with overlap
     ethr =  3.19E-08,  avg # of iterations =  8.1

     total cpu time spent up to now is       74.8 secs

     total energy              =   -1058.32728984 Ry
     estimated scf accuracy    <       0.00001398 Ry

     iteration #  7     ecut=    80.00 Ry     beta= 0.70
     Davidson diagonalization with overlap
     ethr =  3.18E-08,  avg # of iterations =  1.0

     total cpu time spent up to now is       81.4 secs

     total energy              =   -1058.32728673 Ry
     estimated scf accuracy    <       0.00000765 Ry

     iteration #  8     ecut=    80.00 Ry     beta= 0.70
     Davidson diagonalization with overlap
     ethr =  1.74E-08,  avg # of iterations =  3.4

     total cpu time spent up to now is       90.2 secs

     total energy              =   -1058.32728845 Ry
     estimated scf accuracy    <       0.00000004 Ry

     iteration #  9     ecut=    80.00 Ry     beta= 0.70
     Davidson diagonalization with overlap
     ethr =  8.42E-11,  avg # of iterations = 10.5

     total cpu time spent up to now is      112.4 secs

     total energy              =   -1058.32728862 Ry
     estimated scf accuracy    <       0.00000039 Ry

     iteration # 10     ecut=    80.00 Ry     beta= 0.70
     Davidson diagonalization with overlap
     ethr =  8.42E-11,  avg # of iterations =  6.0

     total cpu time spent up to now is      125.0 secs

     End of self-consistent calculation

          k = 0.0000 0.0000 0.0000 ( 16519 PWs)   bands (ev):

   -17.6136 -13.0192 -13.0192 -12.8577 -12.8577 -12.8577 -10.9543 -10.2318
   -10.2318  -4.4043  -4.4043  -4.4043  -3.1118  -0.4761  -0.4761  -0.4761
     1.7032   1.7032   1.7032   1.8231   1.8231   1.8231

          k = 0.0000 0.0000 0.1667 ( 16495 PWs)   bands (ev):

   -17.6133 -13.0191 -13.0034 -12.8579 -12.8579 -12.8577 -10.9235 -10.2914
   -10.2314  -4.4013  -4.4012  -4.4012  -3.3658  -0.4537  -0.4537   0.0253
     1.6697   1.6714   1.6714   1.7914   1.7914   1.8103

          k = 0.0000 0.0000 0.3333 ( 16424 PWs)   bands (ev):

   -17.6128 -13.0191 -12.9714 -12.8584 -12.8584 -12.8577 -10.8328 -10.4406
   -10.2304  -4.3954  -4.3949  -4.3949  -3.7307  -0.4068  -0.4068   0.8318
     1.5976   1.5976   1.6051   1.7377   1.7377   2.0126

          k = 0.0000 0.0000-0.5000 ( 16488 PWs)   bands (ev):

   -17.6125 -13.0191 -12.9551 -12.8587 -12.8587 -12.8577 -10.7388 -10.5643
   -10.2300  -4.3927  -4.3917  -4.3917  -3.8741  -0.3821  -0.3821   1.0501
     1.5566   1.5566   1.5739   1.7144   1.7144   2.4317

          k = 0.0000 0.1667 0.1667 ( 16494 PWs)   bands (ev):

   -17.6131 -13.0114 -12.9952 -12.8582 -12.8579 -12.8579 -10.8945 -10.3160
   -10.2625  -4.4061  -4.3982  -4.3945  -3.5943  -0.4288  -0.1171   0.1850
     1.5134   1.6443   1.7218   1.7524   1.7842   1.8644

          k = 0.0000 0.1667 0.3333 ( 16481 PWs)   bands (ev):

   -17.6126 -13.0086 -12.9654 -12.8587 -12.8584 -12.8579 -10.8084 -10.4457
   -10.2736  -4.4043  -4.3927  -4.3923  -3.9365  -0.3761   0.0307   0.8380
     1.3993   1.5776   1.6859   1.7103   1.8416   2.0676

          k = 0.0000 0.1667-0.5000 ( 16502 PWs)   bands (ev):

   -17.6123 -13.0083 -12.9491 -12.8589 -12.8587 -12.8579 -10.7167 -10.5645
   -10.2743  -4.3982  -4.3974  -4.3893  -4.0740  -0.3481   0.0690   0.9847
     1.4098   1.5373   1.6586   1.7040   1.8335   2.5002

          k = 0.0000 0.3333 0.3333 ( 16466 PWs)   bands (ev):

   -17.6121 -12.9962 -12.9439 -12.8592 -12.8584 -12.8584 -10.7350 -10.4825
   -10.3590  -4.4111  -4.3997  -4.3872  -4.2582  -0.3102   0.7616   0.8550
     1.3069   1.5332   1.5835   1.6910   2.0359   2.3498

          k = 0.0000 0.3333-0.5000 ( 16474 PWs)   bands (ev):

   -17.6119 -12.9933 -12.9296 -12.8594 -12.8587 -12.8584 -10.6493 -10.5650
   -10.3872  -4.4101  -4.4087  -4.3896  -4.3846  -0.2746   0.8556   0.9470
     1.3967   1.4993   1.5420   1.6661   2.0771   2.7878

          k = 0.0000-0.5000-0.5000 ( 16484 PWs)   bands (ev):

   -17.6116 -12.9888 -12.9163 -12.8597 -12.8587 -12.8587 -10.5653 -10.5653
   -10.4947  -4.5225  -4.4143  -4.4143  -4.3822  -0.2345   0.7973   1.4086
     1.4086   1.4806   1.4806   1.5862   2.1777   3.1670

          k = 0.1667 0.1667 0.1667 ( 16473 PWs)   bands (ev):

   -17.6128 -12.9952 -12.9952 -12.8582 -12.8582 -12.8582 -10.8673 -10.3154
   -10.3154  -4.4054  -4.4054  -4.3877  -3.8049  -0.0906  -0.0906   0.3219
     1.4919   1.4919   1.6899   1.8153   1.8568   1.8568

          k = 0.1667 0.1667 0.3333 ( 16488 PWs)   bands (ev):

   -17.6123 -12.9951 -12.9621 -12.8587 -12.8587 -12.8582 -10.7863 -10.4490
   -10.3142  -4.4069  -4.4040  -4.3872  -4.1304  -0.0335   0.1436   0.8449
     1.3263   1.4638   1.7370   1.8203   1.8798   2.0895

          k = 0.1667 0.1667-0.5000 ( 16476 PWs)   bands (ev):

   -17.6121 -12.9951 -12.9452 -12.8589 -12.8589 -12.8582 -10.6977 -10.5644
   -10.3135  -4.4039  -4.4034  -4.3910  -4.2634  -0.0025   0.1986   0.9644
     1.2580   1.5207   1.7056   1.8089   1.8879   2.5524

          k = 0.1667 0.3333 0.3333 ( 16500 PWs)   bands (ev):

   -17.6119 -12.9791 -12.9439 -12.8592 -12.8587 -12.8587 -10.7196 -10.4816
   -10.3931  -4.4408  -4.4150  -4.4091  -4.3910   0.1063   0.7901   0.8722
     1.2214   1.3631   1.7686   1.8613   2.0360   2.3572

          k = 0.1667 0.3333-0.5000 ( 16486 PWs)   bands (ev):

   -17.6117 -12.9763 -12.9292 -12.8594 -12.8589 -12.8587 -10.6397 -10.5643
   -10.4135  -4.5705  -4.4148  -4.4147  -4.3946   0.1506   0.8888   0.9638
     1.1956   1.4130   1.7574   1.8399   2.0820   2.8265

          k = 0.1667-0.5000-0.5000 ( 16500 PWs)   bands (ev):

   -17.6114 -12.9712 -12.9163 -12.8597 -12.8589 -12.8589 -10.5642 -10.5642
   -10.5106  -4.6996  -4.4204  -4.4204  -4.3966   0.2011   0.8454   1.1931
     1.1931   1.5878   1.7627   1.7627   2.1806   3.2230

          k = 0.3333 0.3333 0.3333 ( 16530 PWs)   bands (ev):

   -17.6115 -12.9439 -12.9439 -12.8592 -12.8592 -12.8592 -10.6719 -10.4797
   -10.4797  -4.7406  -4.4229  -4.4229  -4.4047   0.8667   0.8667   0.9134
     1.1711   1.1711   2.0133   2.0133   2.0577   2.5822

          k = 0.3333 0.3333-0.5000 ( 16510 PWs)   bands (ev):

   -17.6113 -12.9439 -12.9258 -12.8594 -12.8594 -12.8592 -10.6090 -10.5628
   -10.4788  -4.8685  -4.4268  -4.4266  -4.4146   0.9425   0.9429   1.0158
     1.0584   1.3580   2.0100   2.0244   2.1131   3.0598

          k = 0.3333-0.5000-0.5000 ( 16512 PWs)   bands (ev):

   -17.6111 -12.9350 -12.9163 -12.8597 -12.8594 -12.8594 -10.5620 -10.5620
   -10.5437  -4.9966  -4.4325  -4.4325  -4.4247   0.9429   1.0423   1.0423
     1.1093   1.5911   2.0590   2.0590   2.1866   3.4676

          k =-0.5000-0.5000-0.5000 ( 16560 PWs)   bands (ev):

   -17.6109 -12.9163 -12.9163 -12.8597 -12.8597 -12.8597 -10.5609 -10.5609
   -10.5609  -5.1251  -4.4386  -4.4386  -4.4386   0.9924   0.9924   0.9924
     1.5927   1.5927   2.1896   2.1896   2.1896   3.8757

     highest occupied level (ev):     3.8757

!    total energy              =   -1058.32728865 Ry
     estimated scf accuracy    <          9.0E-09 Ry

     The total energy is the sum of the following terms:
     one-electron contribution =     -94.69915541 Ry
     hartree contribution      =      68.48583261 Ry
     xc contribution           =    -136.62926913 Ry
     ewald contribution        =    -167.04372586 Ry
     one-center paw contrib.   =    -728.44097085 Ry

     convergence has been achieved in  10 iterations

     Forces acting on atoms (cartesian axes, Ry/au):

     atom    1 type  1   force =     0.00000000    0.00000000    0.00000000
     atom    2 type  2   force =     0.00000000    0.00000000    0.00000000
     atom    3 type  3   force =     0.00000000    0.00000000    0.00000000
     atom    4 type  3   force =     0.00000000    0.00000000    0.00000000
     atom    5 type  3   force =     0.00000000    0.00000000    0.00000000

     Total force =     0.000000     Total SCF correction =     0.000000


     Computing stress (Cartesian axis) and pressure

          total   stress  (Ry/bohr**3)                   (kbar)     P=       14.75
   0.00010026   0.00000000   0.00000000           14.75        0.00        0.00
   0.00000000   0.00010026   0.00000000            0.00       14.75        0.00
   0.00000000   0.00000000   0.00010026            0.00        0.00       14.75


     BFGS Geometry Optimization
     Energy error            =      0.0E+00 Ry
     Gradient error          =      0.0E+00 Ry/Bohr
     Cell gradient error     =      1.5E+01 kbar

     number of scf cycles    =   1
     number of bfgs steps    =   0

     enthalpy           new  =   -1058.3272886491 Ry

     new trust radius        =       0.0185210849 bohr
     new conv_thr            =       0.0000000100 Ry

     new unit-cell volume =   1375.22132 a.u.^3 (   203.78677 Ang^3 )
     density =      4.72459 g/cm^3

CELL_PARAMETERS (angstrom)
   5.884713604   0.000000000   0.000000000
   0.000000000   5.884713604   0.000000000
   0.000000000   0.000000000   5.884713604

ATOMIC_POSITIONS (crystal)
Cs               0.0000000000        0.0000000000        0.0000000000
Pb               0.5000000000        0.5000000000        0.5000000000
Br               0.5000000000        0.5000000000        0.0000000000
Br               0.5000000000        0.0000000000        0.5000000000
Br               0.0000000000        0.5000000000        0.5000000000



     Writing config-only to output data dir ./tmp/CsPbBr3.save/ :
     XML data file
     NEW-OLD atomic charge density approx. for the potential

     total cpu time spent up to now is      137.5 secs

     Self-consistent Calculation

     iteration #  1     ecut=    80.00 Ry     beta= 0.70
     Davidson diagonalization with overlap
     ethr =  1.00E-06,  avg # of iterations =  4.2

     total cpu time spent up to now is      148.1 secs

     total energy              =   -1058.32810495 Ry
     estimated scf accuracy    <       0.00023250 Ry

     iteration #  2     ecut=    80.00 Ry     beta= 0.70
     Davidson diagonalization with overlap
     ethr =  5.28E-07,  avg # of iterations =  5.0

     total cpu time spent up to now is      158.7 secs

     total energy              =   -1058.32823920 Ry
     estimated scf accuracy    <       0.00019045 Ry

     iteration #  3     ecut=    80.00 Ry     beta= 0.70
     Davidson diagonalization with overlap
     ethr =  4.33E-07,  avg # of iterations =  1.1

     total cpu time spent up to now is      165.4 secs

     total energy              =   -1058.32824613 Ry
     estimated scf accuracy    <       0.00005529 Ry

     iteration #  4     ecut=    80.00 Ry     beta= 0.70
     Davidson diagonalization with overlap
     ethr =  1.26E-07,  avg # of iterations =  1.9

     total cpu time spent up to now is      172.6 secs

     total energy              =   -1058.32825550 Ry
     estimated scf accuracy    <       0.00002451 Ry

     iteration #  5     ecut=    80.00 Ry     beta= 0.70
     Davidson diagonalization with overlap
     ethr =  5.57E-08,  avg # of iterations =  1.1

     total cpu time spent up to now is      179.3 secs

     total energy              =   -1058.32825318 Ry
     estimated scf accuracy    <       0.00002158 Ry

     iteration #  6     ecut=    80.00 Ry     beta= 0.70
     Davidson diagonalization with overlap
     ethr =  4.90E-08,  avg # of iterations =  2.2

     total cpu time spent up to now is      187.0 secs

     total energy              =   -1058.32825420 Ry
     estimated scf accuracy    <       0.00000077 Ry

     iteration #  7     ecut=    80.00 Ry     beta= 0.70
     Davidson diagonalization with overlap
     ethr =  1.75E-09,  avg # of iterations =  5.2

     total cpu time spent up to now is      198.3 secs

     total energy              =   -1058.32825481 Ry
     estimated scf accuracy    <       0.00000047 Ry

     iteration #  8     ecut=    80.00 Ry     beta= 0.70
     Davidson diagonalization with overlap
     ethr =  1.06E-09,  avg # of iterations =  1.2

     total cpu time spent up to now is      205.0 secs

     total energy              =   -1058.32825482 Ry
     estimated scf accuracy    <       0.00000050 Ry

     iteration #  9     ecut=    80.00 Ry     beta= 0.70
     Davidson diagonalization with overlap
     ethr =  1.06E-09,  avg # of iterations =  1.0

     total cpu time spent up to now is      211.6 secs

     total energy              =   -1058.32825483 Ry
     estimated scf accuracy    <       0.00000054 Ry

     iteration # 10     ecut=    80.00 Ry     beta= 0.70
     Davidson diagonalization with overlap
     ethr =  1.06E-09,  avg # of iterations =  1.0

     total cpu time spent up to now is      218.2 secs

     total energy              =   -1058.32825476 Ry
     estimated scf accuracy    <       0.00000045 Ry

     iteration # 11     ecut=    80.00 Ry     beta= 0.70
     Davidson diagonalization with overlap
     ethr =  1.02E-09,  avg # of iterations =  1.4

     total cpu time spent up to now is      224.9 secs

     total energy              =   -1058.32825474 Ry
     estimated scf accuracy    <       0.00000017 Ry

     iteration # 12     ecut=    80.00 Ry     beta= 0.70
     Davidson diagonalization with overlap
     ethr =  3.95E-10,  avg # of iterations =  2.0

     total cpu time spent up to now is      232.1 secs

     total energy              =   -1058.32825474 Ry
     estimated scf accuracy    <       0.00000006 Ry

     iteration # 13     ecut=    80.00 Ry     beta= 0.70
     Davidson diagonalization with overlap
     ethr =  1.36E-10,  avg # of iterations =  1.8

     total cpu time spent up to now is      239.2 secs

     total energy              =   -1058.32825474 Ry
     estimated scf accuracy    <       0.00000005 Ry

     iteration # 14     ecut=    80.00 Ry     beta= 0.70
     Davidson diagonalization with overlap
     ethr =  1.18E-10,  avg # of iterations =  1.0

     total cpu time spent up to now is      245.7 secs

     total energy              =   -1058.32825474 Ry
     estimated scf accuracy    <       0.00000003 Ry

     iteration # 15     ecut=    80.00 Ry     beta= 0.70
     Davidson diagonalization with overlap
     ethr =  7.13E-11,  avg # of iterations =  1.2

     total cpu time spent up to now is      252.5 secs

     total energy              =   -1058.32825474 Ry
     estimated scf accuracy    <       0.00000003 Ry

     iteration # 16     ecut=    80.00 Ry     beta= 0.70
     Davidson diagonalization with overlap
     ethr =  6.86E-11,  avg # of iterations =  1.0

     total cpu time spent up to now is      259.0 secs

     total energy              =   -1058.32825474 Ry
     estimated scf accuracy    <       0.00000003 Ry

     iteration # 17     ecut=    80.00 Ry     beta= 0.70
     Davidson diagonalization with overlap
     ethr =  6.86E-11,  avg # of iterations =  2.0

     total cpu time spent up to now is      266.8 secs

     total energy              =   -1058.32825474 Ry
     estimated scf accuracy    <       0.00000003 Ry

     iteration # 18     ecut=    80.00 Ry     beta= 0.70
     Davidson diagonalization with overlap
     ethr =  6.65E-11,  avg # of iterations =  1.0

     total cpu time spent up to now is      273.4 secs

     total energy              =   -1058.32825474 Ry
     estimated scf accuracy    <       0.00000003 Ry

     iteration # 19     ecut=    80.00 Ry     beta= 0.70
     Davidson diagonalization with overlap
     ethr =  6.39E-11,  avg # of iterations =  1.0

     total cpu time spent up to now is      280.0 secs

     total energy              =   -1058.32825474 Ry
     estimated scf accuracy    <       0.00000003 Ry

     iteration # 20     ecut=    80.00 Ry     beta= 0.70
     Davidson diagonalization with overlap
     ethr =  6.39E-11,  avg # of iterations =  1.0

     total cpu time spent up to now is      286.6 secs

     total energy              =   -1058.32825474 Ry
     estimated scf accuracy    <       0.00000003 Ry

     iteration # 21     ecut=    80.00 Ry     beta= 0.70
     Davidson diagonalization with overlap
     ethr =  6.39E-11,  avg # of iterations =  1.0

     total cpu time spent up to now is      293.2 secs

     total energy              =   -1058.32825475 Ry
     estimated scf accuracy    <       0.00000004 Ry

     iteration # 22     ecut=    80.00 Ry     beta= 0.70
     Davidson diagonalization with overlap
     ethr =  6.39E-11,  avg # of iterations =  1.0

     total cpu time spent up to now is      299.7 secs

     total energy              =   -1058.32825474 Ry
     estimated scf accuracy    <       0.00000006 Ry

     iteration # 23     ecut=    80.00 Ry     beta= 0.70
     Davidson diagonalization with overlap
     ethr =  6.39E-11,  avg # of iterations =  1.0

     total cpu time spent up to now is      306.3 secs

     total energy              =   -1058.32825473 Ry
     estimated scf accuracy    <       0.00000005 Ry

     iteration # 24     ecut=    80.00 Ry     beta= 0.70
     Davidson diagonalization with overlap
     ethr =  6.39E-11,  avg # of iterations =  3.9

     total cpu time spent up to now is      315.1 secs

     End of self-consistent calculation

          k = 0.0000 0.0000 0.0000 ( 16519 PWs)   bands (ev):

   -17.6865 -13.0944 -13.0944 -12.9402 -12.9402 -12.9402 -10.9950 -10.2919
   -10.2919  -4.4754  -4.4754  -4.4754  -3.1990  -0.5132  -0.5132  -0.5132
     1.6495   1.6495   1.6495   1.7657   1.7657   1.7657

          k = 0.0000 0.0000 0.1662 ( 16495 PWs)   bands (ev):

   -17.6862 -13.0944 -13.0794 -12.9404 -12.9404 -12.9402 -10.9649 -10.3495
   -10.2915  -4.4726  -4.4724  -4.4724  -3.4451  -0.4910  -0.4910  -0.0210
     1.6167   1.6181   1.6181   1.7347   1.7347   1.7521

          k = 0.0000 0.0000 0.3325 ( 16424 PWs)   bands (ev):

   -17.6857 -13.0944 -13.0487 -12.9409 -12.9409 -12.9402 -10.8763 -10.4939
   -10.2906  -4.4672  -4.4664  -4.4664  -3.8023  -0.4443  -0.4443   0.7816
     1.5447   1.5447   1.5534   1.6825   1.6825   1.9441

          k = 0.0000 0.0000-0.4987 ( 16488 PWs)   bands (ev):

   -17.6855 -13.0943 -13.0331 -12.9411 -12.9411 -12.9402 -10.7852 -10.6134
   -10.2901  -4.4646  -4.4634  -4.4634  -3.9434  -0.4196  -0.4196   1.0034
     1.5039   1.5039   1.5229   1.6601   1.6601   2.3510

          k = 0.0000 0.1662 0.1662 ( 16494 PWs)   bands (ev):

   -17.6860 -13.0870 -13.0715 -12.9407 -12.9404 -12.9404 -10.9364 -10.3734
   -10.3216  -4.4772  -4.4696  -4.4661  -3.6674  -0.4663  -0.1583   0.1355
     1.4618   1.5915   1.6674   1.6964   1.7262   1.8068

          k = 0.0000 0.1662 0.3325 ( 16481 PWs)   bands (ev):

   -17.6855 -13.0843 -13.0430 -12.9411 -12.9409 -12.9404 -10.8522 -10.4989
   -10.3323  -4.4756  -4.4645  -4.4639  -4.0030  -0.4139  -0.0129   0.7890
     1.3485   1.5253   1.6315   1.6555   1.7846   1.9985

          k = 0.0000 0.1662-0.4987 ( 16502 PWs)   bands (ev):

   -17.6853 -13.0840 -13.0274 -12.9414 -12.9411 -12.9404 -10.7633 -10.6136
   -10.3330  -4.4699  -4.4689  -4.4611  -4.1385  -0.3861   0.0249   0.9391
     1.3594   1.4852   1.6052   1.6490   1.7781   2.4182

          k = 0.0000 0.3325 0.3325 ( 16466 PWs)   bands (ev):

   -17.6850 -13.0724 -13.0226 -12.9416 -12.9409 -12.9409 -10.7804 -10.5344
   -10.4151  -4.4822  -4.4712  -4.4590  -4.3185  -0.3489   0.7113   0.8096
     1.2557   1.4820   1.5308   1.6348   1.9771   2.2720

          k = 0.0000 0.3325-0.4987 ( 16474 PWs)   bands (ev):

   -17.6848 -13.0696 -13.0090 -12.9418 -12.9411 -12.9409 -10.6971 -10.6141
   -10.4425  -4.4807  -4.4799  -4.4566  -4.4486  -0.3137   0.8121   0.8947
     1.3456   1.4483   1.4905   1.6089   2.0182   2.7006

          k = 0.0000-0.4987-0.4987 ( 16484 PWs)   bands (ev):

   -17.6846 -13.0654 -12.9964 -12.9421 -12.9411 -12.9411 -10.6143 -10.6143
   -10.5474  -4.5787  -4.4853  -4.4853  -4.4543  -0.2742   0.7548   1.3570
     1.3570   1.4301   1.4301   1.5244   2.1173   3.0724

          k = 0.1662 0.1662 0.1662 ( 16473 PWs)   bands (ev):

   -17.6858 -13.0715 -13.0715 -12.9407 -12.9407 -12.9407 -10.9097 -10.3728
   -10.3728  -4.4765  -4.4765  -4.4596  -3.8729  -0.1320  -0.1320   0.2707
     1.4407   1.4407   1.6311   1.7602   1.7994   1.7994

          k = 0.1662 0.1662 0.3325 ( 16488 PWs)   bands (ev):

   -17.6853 -13.0715 -13.0399 -12.9411 -12.9411 -12.9406 -10.8306 -10.5020
   -10.3716  -4.4781  -4.4753  -4.4591  -4.1924  -0.0754   0.0982   0.7968
     1.2768   1.4121   1.6791   1.7644   1.8236   2.0197

          k = 0.1662 0.1662-0.4987 ( 16476 PWs)   bands (ev):

   -17.6850 -13.0714 -13.0238 -12.9414 -12.9414 -12.9406 -10.7446 -10.6135
   -10.3710  -4.4753  -4.4746  -4.4627  -4.3235  -0.0447   0.1522   0.9191
     1.2091   1.4678   1.6514   1.7533   1.8319   2.4693

          k = 0.1662 0.3325 0.3325 ( 16500 PWs)   bands (ev):

   -17.6848 -13.0561 -13.0226 -12.9416 -12.9411 -12.9411 -10.7652 -10.5335
   -10.4480  -4.4972  -4.4860  -4.4801  -4.4628   0.0622   0.7394   0.8265
     1.1721   1.3121   1.7122   1.8044   1.9774   2.2787

          k = 0.1662 0.3325-0.4987 ( 16486 PWs)   bands (ev):

   -17.6846 -13.0534 -13.0086 -12.9418 -12.9414 -12.9411 -10.6875 -10.6134
   -10.4678  -4.6247  -4.4857  -4.4857  -4.4662   0.1058   0.8445   0.9119
     1.1469   1.3593   1.7029   1.7831   2.0231   2.7384

          k = 0.1662-0.4987-0.4987 ( 16500 PWs)   bands (ev):

   -17.6844 -13.0486 -12.9964 -12.9421 -12.9414 -12.9414 -10.6133 -10.6133
   -10.5625  -4.7517  -4.4911  -4.4911  -4.4681   0.1554   0.8015   1.1442
     1.1442   1.5259   1.7081   1.7081   2.1202   3.1275

          k = 0.3325 0.3325 0.3325 ( 16530 PWs)   bands (ev):

   -17.6844 -13.0226 -13.0226 -12.9416 -12.9416 -12.9416 -10.7185 -10.5317
   -10.5317  -4.7911  -4.4935  -4.4935  -4.4761   0.8152   0.8152   0.8676
     1.1213   1.1213   1.9547   1.9547   1.9991   2.4977

          k = 0.3325 0.3325-0.4987 ( 16510 PWs)   bands (ev):

   -17.6842 -13.0226 -13.0054 -12.9419 -12.9418 -12.9416 -10.6573 -10.6119
   -10.5307  -4.9170  -4.4972  -4.4971  -4.4855   0.8890   0.8971   0.9663
     1.0107   1.3006   1.9520   1.9659   2.0537   2.9678

          k = 0.3325-0.4987-0.4987 ( 16512 PWs)   bands (ev):

   -17.6840 -13.0141 -12.9964 -12.9421 -12.9418 -12.9418 -10.6112 -10.6112
   -10.5939  -5.0429  -4.5027  -4.5027  -4.4952   0.8965   0.9945   0.9945
     1.0532   1.5291   2.0004   2.0004   2.1261   3.3683

          k =-0.4987-0.4987-0.4987 ( 16560 PWs)   bands (ev):

   -17.6839 -12.9964 -12.9964 -12.9421 -12.9421 -12.9421 -10.6101 -10.6101
   -10.6101  -5.1692  -4.5085  -4.5085  -4.5085   0.9448   0.9448   0.9448
     1.5307   1.5307   2.1290   2.1290   2.1290   3.7678

     highest occupied level (ev):     3.7678

!    total energy              =   -1058.32825473 Ry
     estimated scf accuracy    <          1.2E-09 Ry

     The total energy is the sum of the following terms:
     one-electron contribution =     -95.33993127 Ry
     hartree contribution      =      68.69692183 Ry
     xc contribution           =    -136.61863005 Ry
     ewald contribution        =    -166.62606487 Ry
     one-center paw contrib.   =    -728.44055036 Ry

     convergence has been achieved in  24 iterations

     Forces acting on atoms (cartesian axes, Ry/au):

     atom    1 type  1   force =     0.00000000    0.00000000    0.00000000
     atom    2 type  2   force =     0.00000000    0.00000000    0.00000000
     atom    3 type  3   force =     0.00000000    0.00000000    0.00000000
     atom    4 type  3   force =     0.00000000    0.00000000    0.00000000
     atom    5 type  3   force =     0.00000000    0.00000000    0.00000000

     Total force =     0.000000     Total SCF correction =     0.000000


     Computing stress (Cartesian axis) and pressure

          total   stress  (Ry/bohr**3)                   (kbar)     P=       12.88
   0.00008754   0.00000000   0.00000000           12.88        0.00        0.00
   0.00000000   0.00008754   0.00000000            0.00       12.88        0.00
   0.00000000   0.00000000   0.00008754            0.00        0.00       12.88

     Energy error            =      9.7E-04 Ry
     Gradient error          =      0.0E+00 Ry/Bohr
     Cell gradient error     =      1.3E+01 kbar

     number of scf cycles    =   2
     number of bfgs steps    =   1

     enthalpy           old  =   -1058.3272886491 Ry
     enthalpy           new  =   -1058.3282547322 Ry

     CASE: enthalpy          _new < enthalpy          _old


     WARNING: bfgs curvature condition failed, Theta= 0.912
     new trust radius        =       0.0203987108 bohr
     new conv_thr            =            1.0E-10 Ry

     new unit-cell volume =   1386.59953 a.u.^3 (   205.47285 Ang^3 )
     density =      4.68582 g/cm^3

CELL_PARAMETERS (angstrom)
   5.900898569   0.000000000   0.000000000
   0.000000000   5.900898569   0.000000000
   0.000000000   0.000000000   5.900898569

ATOMIC_POSITIONS (crystal)
Cs               0.0000000000        0.0000000000        0.0000000000
Pb               0.5000000000        0.5000000000        0.5000000000
Br               0.5000000000        0.5000000000        0.0000000000
Br               0.5000000000        0.0000000000        0.5000000000
Br               0.0000000000        0.5000000000        0.5000000000



     Writing config-only to output data dir ./tmp/CsPbBr3.save/ :
     XML data file
     NEW-OLD atomic charge density approx. for the potential

     total cpu time spent up to now is      327.4 secs

     Self-consistent Calculation

     iteration #  1     ecut=    80.00 Ry     beta= 0.70
     Davidson diagonalization with overlap
     ethr =  1.00E-06,  avg # of iterations =  4.4

     total cpu time spent up to now is      338.2 secs

     total energy              =   -1058.32899262 Ry
     estimated scf accuracy    <       0.00028443 Ry

     iteration #  2     ecut=    80.00 Ry     beta= 0.70
     Davidson diagonalization with overlap
     ethr =  6.46E-07,  avg # of iterations =  5.0

     total cpu time spent up to now is      349.0 secs

     total energy              =   -1058.32915538 Ry
     estimated scf accuracy    <       0.00023297 Ry

     iteration #  3     ecut=    80.00 Ry     beta= 0.70
     Davidson diagonalization with overlap
     ethr =  5.29E-07,  avg # of iterations =  1.4

     total cpu time spent up to now is      355.8 secs

     total energy              =   -1058.32916362 Ry
     estimated scf accuracy    <       0.00006808 Ry

     iteration #  4     ecut=    80.00 Ry     beta= 0.70
     Davidson diagonalization with overlap
     ethr =  1.55E-07,  avg # of iterations =  1.8

     total cpu time spent up to now is      362.9 secs

     total energy              =   -1058.32917646 Ry
     estimated scf accuracy    <       0.00003200 Ry

     iteration #  5     ecut=    80.00 Ry     beta= 0.70
     Davidson diagonalization with overlap
     ethr =  7.27E-08,  avg # of iterations =  1.2

     total cpu time spent up to now is      369.5 secs

     total energy              =   -1058.32917242 Ry
     estimated scf accuracy    <       0.00002320 Ry

     iteration #  6     ecut=    80.00 Ry     beta= 0.70
     Davidson diagonalization with overlap
     ethr =  5.27E-08,  avg # of iterations =  2.8

     total cpu time spent up to now is      377.4 secs

     total energy              =   -1058.32917373 Ry
     estimated scf accuracy    <       0.00000093 Ry

     iteration #  7     ecut=    80.00 Ry     beta= 0.70
     Davidson diagonalization with overlap
     ethr =  2.12E-09,  avg # of iterations =  4.9

     total cpu time spent up to now is      388.2 secs

     total energy              =   -1058.32917419 Ry
     estimated scf accuracy    <       0.00000023 Ry

     iteration #  8     ecut=    80.00 Ry     beta= 0.70
     Davidson diagonalization with overlap
     ethr =  5.17E-10,  avg # of iterations =  2.2

     total cpu time spent up to now is      396.2 secs

     total energy              =   -1058.32917424 Ry
     estimated scf accuracy    <       0.00000009 Ry

     iteration #  9     ecut=    80.00 Ry     beta= 0.70
     Davidson diagonalization with overlap
     ethr =  1.94E-10,  avg # of iterations =  5.0

     total cpu time spent up to now is      406.9 secs

     total energy              =   -1058.32917429 Ry
     estimated scf accuracy    <       0.00000039 Ry

     iteration # 10     ecut=    80.00 Ry     beta= 0.70
     Davidson diagonalization with overlap
     ethr =  1.94E-10,  avg # of iterations =  1.0

     total cpu time spent up to now is      413.4 secs

     total energy              =   -1058.32917417 Ry
     estimated scf accuracy    <       0.00000055 Ry

     iteration # 11     ecut=    80.00 Ry     beta= 0.70
     Davidson diagonalization with overlap
     ethr =  1.94E-10,  avg # of iterations =  4.0

     total cpu time spent up to now is      423.1 secs

     total energy              =   -1058.32917419 Ry
     estimated scf accuracy    <       0.00000007 Ry

     iteration # 12     ecut=    80.00 Ry     beta= 0.70
     Davidson diagonalization with overlap
     ethr =  1.67E-10,  avg # of iterations =  2.6

     total cpu time spent up to now is      430.7 secs

     total energy              =   -1058.32917419 Ry
     estimated scf accuracy    <          8.8E-09 Ry

     iteration # 13     ecut=    80.00 Ry     beta= 0.70
     Davidson diagonalization with overlap
     ethr =  1.99E-11,  avg # of iterations =  4.0

     total cpu time spent up to now is      440.0 secs

     End of self-consistent calculation

          k = 0.0000 0.0000 0.0000 ( 16519 PWs)   bands (ev):

   -17.7659 -13.1762 -13.1762 -13.0295 -13.0295 -13.0295 -11.0396 -10.3570
   -10.3570  -4.5529  -4.5529  -4.5529  -3.2938  -0.5536  -0.5536  -0.5536
     1.5911   1.5911   1.5911   1.7032   1.7032   1.7032

          k = 0.0000 0.0000 0.1658 ( 16495 PWs)   bands (ev):

   -17.7657 -13.1762 -13.1618 -13.0297 -13.0297 -13.0295 -11.0101 -10.4126
   -10.3566  -4.5504  -4.5501  -4.5501  -3.5316  -0.5315  -0.5315  -0.0711
     1.5591   1.5601   1.5601   1.6730   1.6730   1.6889

          k = 0.0000 0.0000 0.3316 ( 16424 PWs)   bands (ev):

   -17.7652 -13.1761 -13.1327 -13.0302 -13.0302 -13.0295 -10.9237 -10.5519
   -10.3557  -4.5454  -4.5444  -4.5444  -3.8804  -0.4851  -0.4851   0.7271
     1.4873   1.4873   1.4972   1.6225   1.6225   1.8698

          k = 0.0000 0.0000-0.4974 ( 16488 PWs)   bands (ev):

   -17.7649 -13.1761 -13.1178 -13.0304 -13.0304 -13.0295 -10.8356 -10.6669
   -10.3553  -4.5430  -4.5415  -4.5415  -4.0190  -0.4605  -0.4605   0.9525
     1.4466   1.4466   1.4673   1.6010   1.6010   2.2635

          k = 0.0000 0.1658 0.1658 ( 16494 PWs)   bands (ev):

   -17.7654 -13.1691 -13.1544 -13.0299 -13.0297 -13.0297 -10.9822 -10.4356
   -10.3857  -4.5547  -4.5474  -4.5442  -3.7472  -0.5070  -0.2031   0.0820
     1.4056   1.5341   1.6083   1.6353   1.6631   1.7441

          k = 0.0000 0.1658 0.3316 ( 16481 PWs)   bands (ev):

   -17.7650 -13.1665 -13.1272 -13.0304 -13.0302 -13.0297 -10.9001 -10.5566
   -10.3960  -4.5534  -4.5428  -4.5420  -4.0756  -0.4551  -0.0603   0.7357
     1.2931   1.4685   1.5724   1.5958   1.7227   1.9237

          k = 0.0000 0.1658-0.4974 ( 16502 PWs)   bands (ev):

   -17.7647 -13.1662 -13.1124 -13.0306 -13.0304 -13.0297 -10.8141 -10.6671
   -10.3967  -4.5480  -4.5469  -4.5393  -4.2088  -0.4276  -0.0229   0.8895
     1.3045   1.4285   1.5471   1.5891   1.7178   2.3295

          k = 0.0000 0.3316 0.3316 ( 16466 PWs)   bands (ev):

   -17.7645 -13.1552 -13.1080 -13.0308 -13.0302 -13.0302 -10.8299 -10.5908
   -10.4760  -4.5597  -4.5492  -4.5373  -4.3845  -0.3909   0.6565   0.7602
     1.1998   1.4263   1.4735   1.5737   1.9133   2.1877

          k = 0.0000 0.3316-0.4974 ( 16474 PWs)   bands (ev):

   -17.7643 -13.1525 -13.0950 -13.0311 -13.0304 -13.0301 -10.7491 -10.6676
   -10.5025  -4.5582  -4.5575  -4.5350  -4.5125  -0.3563   0.7648   0.8378
     1.2900   1.3928   1.4344   1.5468   1.9542   2.6061

          k = 0.0000-0.4974-0.4974 ( 16484 PWs)   bands (ev):

   -17.7641 -13.1484 -13.0832 -13.0313 -13.0304 -13.0304 -10.6678 -10.6678
   -10.6048  -4.6401  -4.5628  -4.5628  -4.5328  -0.3175   0.7084   1.3008
     1.3008   1.3751   1.3751   1.4572   2.0517   2.9699

          k = 0.1658 0.1658 0.1658 ( 16473 PWs)   bands (ev):

   -17.7652 -13.1543 -13.1543 -13.0299 -13.0299 -13.0299 -10.9561 -10.4350
   -10.4350  -4.5541  -4.5541  -4.5380  -3.9472  -0.1770  -0.1770   0.2152
     1.3849   1.3849   1.5672   1.7001   1.7371   1.7371

          k = 0.1658 0.1658 0.3316 ( 16488 PWs)   bands (ev):

   -17.7648 -13.1543 -13.1243 -13.0304 -13.0304 -13.0299 -10.8789 -10.5597
   -10.4339  -4.5557  -4.5529  -4.5376  -4.2601  -0.1209   0.0489   0.7444
     1.2229   1.3559   1.6161   1.7035   1.7625   1.9441

          k = 0.1658 0.1658-0.4974 ( 16476 PWs)   bands (ev):

   -17.7645 -13.1543 -13.1090 -13.0306 -13.0306 -13.0299 -10.7957 -10.6670
   -10.4333  -4.5532  -4.5523  -4.5410  -4.3891  -0.0905   0.1019   0.8698
     1.1559   1.4103   1.5924   1.6927   1.7709   2.3792

          k = 0.1658 0.3316 0.3316 ( 16500 PWs)   bands (ev):

   -17.7643 -13.1397 -13.1079 -13.0308 -13.0304 -13.0304 -10.8150 -10.5899
   -10.5077  -4.5633  -4.5603  -4.5560  -4.5411   0.0143   0.6844   0.7769
     1.1185   1.2566   1.6508   1.7425   1.9136   2.1936

          k = 0.1658 0.3316-0.4974 ( 16486 PWs)   bands (ev):

   -17.7641 -13.1371 -13.0947 -13.0311 -13.0306 -13.0304 -10.7397 -10.6669
   -10.5267  -4.6839  -4.5631  -4.5630  -4.5443   0.0572   0.7963   0.8555
     1.0939   1.3010   1.6435   1.7215   1.9590   2.6429

          k = 0.1658-0.4974-0.4974 ( 16500 PWs)   bands (ev):

   -17.7639 -13.1325 -13.0832 -13.0313 -13.0306 -13.0306 -10.6668 -10.6668
   -10.6190  -4.8088  -4.5683  -4.5683  -4.5460   0.1059   0.7539   1.0910
     1.0910   1.4587   1.6487   1.6487   2.0545   3.0239

          k = 0.3316 0.3316 0.3316 ( 16530 PWs)   bands (ev):

   -17.7640 -13.1079 -13.1079 -13.0308 -13.0308 -13.0308 -10.7693 -10.5882
   -10.5882  -4.8464  -4.5704  -4.5704  -4.5538   0.7592   0.7592   0.8177
     1.0672   1.0672   1.8910   1.8910   1.9353   2.4059

          k = 0.3316 0.3316-0.4974 ( 16510 PWs)   bands (ev):

   -17.7638 -13.1079 -13.0917 -13.0311 -13.0311 -13.0308 -10.7100 -10.6655
   -10.5873  -4.9700  -4.5740  -4.5739  -4.5628   0.8309   0.8472   0.9125
     0.9587   1.2384   1.8889   1.9023   1.9890   2.8680

          k = 0.3316-0.4974-0.4974 ( 16512 PWs)   bands (ev):

   -17.7636 -13.0999 -13.0832 -13.0313 -13.0311 -13.0311 -10.6648 -10.6648
   -10.6485  -5.0936  -4.5793  -4.5793  -4.5720   0.8462   0.9425   0.9425
     0.9922   1.4618   1.9366   1.9366   2.0602   3.2606

          k =-0.4974-0.4974-0.4974 ( 16560 PWs)   bands (ev):

   -17.7634 -13.0832 -13.0832 -13.0313 -13.0313 -13.0313 -10.6638 -10.6638
   -10.6638  -5.2174  -4.5848  -4.5848  -4.5848   0.8931   0.8931   0.8931
     1.4633   1.4633   2.0631   2.0631   2.0631   3.6508

     highest occupied level (ev):     3.6508

!    total energy              =   -1058.32917419 Ry
     estimated scf accuracy    <          8.0E-11 Ry

     The total energy is the sum of the following terms:
     one-electron contribution =     -96.04152060 Ry
     hartree contribution      =      68.92860082 Ry
     xc contribution           =    -136.60710954 Ry
     ewald contribution        =    -166.16904346 Ry
     one-center paw contrib.   =    -728.44010141 Ry

     convergence has been achieved in  13 iterations

     Forces acting on atoms (cartesian axes, Ry/au):

     atom    1 type  1   force =     0.00000000    0.00000000    0.00000000
     atom    2 type  2   force =     0.00000000    0.00000000    0.00000000
     atom    3 type  3   force =     0.00000000    0.00000000    0.00000000
     atom    4 type  3   force =     0.00000000    0.00000000    0.00000000
     atom    5 type  3   force =     0.00000000    0.00000000    0.00000000

     Total force =     0.000000     Total SCF correction =     0.000000


     Computing stress (Cartesian axis) and pressure

          total   stress  (Ry/bohr**3)                   (kbar)     P=       10.91
   0.00007415   0.00000000   0.00000000           10.91        0.00        0.00
   0.00000000   0.00007415   0.00000000            0.00       10.91        0.00
   0.00000000   0.00000000   0.00007415            0.00        0.00       10.91

     Energy error            =      9.2E-04 Ry
     Gradient error          =      0.0E+00 Ry/Bohr
     Cell gradient error     =      1.1E+01 kbar

     number of scf cycles    =   3
     number of bfgs steps    =   2

     enthalpy           old  =   -1058.3282547322 Ry
     enthalpy           new  =   -1058.3291741919 Ry

     CASE: enthalpy          _new < enthalpy          _old

     new trust radius        =       0.0306401149 bohr
     new conv_thr            =            1.0E-10 Ry

     new unit-cell volume =   1403.78426 a.u.^3 (   208.01937 Ang^3 )
     density =      4.62846 g/cm^3

CELL_PARAMETERS (angstrom)
   5.925176016   0.000000000   0.000000000
   0.000000000   5.925176016   0.000000000
   0.000000000   0.000000000   5.925176016

ATOMIC_POSITIONS (crystal)
Cs               0.0000000000        0.0000000000        0.0000000000
Pb               0.5000000000        0.5000000000        0.5000000000
Br               0.5000000000        0.5000000000        0.0000000000
Br               0.5000000000        0.0000000000        0.5000000000
Br               0.0000000000        0.5000000000        0.5000000000



     Writing config-only to output data dir ./tmp/CsPbBr3.save/ :
     XML data file
     NEW-OLD atomic charge density approx. for the potential

     total cpu time spent up to now is      452.4 secs

     Self-consistent Calculation

     iteration #  1     ecut=    80.00 Ry     beta= 0.70
     Davidson diagonalization with overlap
     ethr =  1.00E-06,  avg # of iterations =  5.5

     total cpu time spent up to now is      465.2 secs

     total energy              =   -1058.32984885 Ry
     estimated scf accuracy    <       0.00069067 Ry

     iteration #  2     ecut=    80.00 Ry     beta= 0.70
     Davidson diagonalization with overlap
     ethr =  1.57E-06,  avg # of iterations =  5.0

     total cpu time spent up to now is      476.0 secs

     total energy              =   -1058.33023732 Ry
     estimated scf accuracy    <       0.00060003 Ry

     iteration #  3     ecut=    80.00 Ry     beta= 0.70
     Davidson diagonalization with overlap
     ethr =  1.36E-06,  avg # of iterations =  1.4

     total cpu time spent up to now is      483.0 secs

     total energy              =   -1058.33025556 Ry
     estimated scf accuracy    <       0.00017417 Ry

     iteration #  4     ecut=    80.00 Ry     beta= 0.70
     Davidson diagonalization with overlap
     ethr =  3.96E-07,  avg # of iterations =  1.6

     total cpu time spent up to now is      490.2 secs

     total energy              =   -1058.33028695 Ry
     estimated scf accuracy    <       0.00008701 Ry

     iteration #  5     ecut=    80.00 Ry     beta= 0.70
     Davidson diagonalization with overlap
     ethr =  1.98E-07,  avg # of iterations =  1.0

     total cpu time spent up to now is      496.8 secs

     total energy              =   -1058.33027987 Ry
     estimated scf accuracy    <       0.00006659 Ry

     iteration #  6     ecut=    80.00 Ry     beta= 0.70
     Davidson diagonalization with overlap
     ethr =  1.51E-07,  avg # of iterations =  2.6

     total cpu time spent up to now is      504.3 secs

     total energy              =   -1058.33028310 Ry
     estimated scf accuracy    <       0.00001055 Ry

     iteration #  7     ecut=    80.00 Ry     beta= 0.70
     Davidson diagonalization with overlap
     ethr =  2.40E-08,  avg # of iterations =  1.5

     total cpu time spent up to now is      511.1 secs

     total energy              =   -1058.33028228 Ry
     estimated scf accuracy    <       0.00001318 Ry

     iteration #  8     ecut=    80.00 Ry     beta= 0.70
     Davidson diagonalization with overlap
     ethr =  2.40E-08,  avg # of iterations =  1.1

     total cpu time spent up to now is      517.7 secs

     total energy              =   -1058.33027950 Ry
     estimated scf accuracy    <       0.00000919 Ry

     iteration #  9     ecut=    80.00 Ry     beta= 0.70
     Davidson diagonalization with overlap
     ethr =  2.09E-08,  avg # of iterations =  4.0

     total cpu time spent up to now is      527.4 secs

     total energy              =   -1058.33028156 Ry
     estimated scf accuracy    <       0.00000119 Ry

     iteration # 10     ecut=    80.00 Ry     beta= 0.70
     Davidson diagonalization with overlap
     ethr =  2.71E-09,  avg # of iterations =  2.9

     total cpu time spent up to now is      535.3 secs

     total energy              =   -1058.33028148 Ry
     estimated scf accuracy    <       0.00000226 Ry

     iteration # 11     ecut=    80.00 Ry     beta= 0.70
     Davidson diagonalization with overlap
     ethr =  2.71E-09,  avg # of iterations =  1.0

     total cpu time spent up to now is      541.8 secs

     total energy              =   -1058.33028180 Ry
     estimated scf accuracy    <       0.00000136 Ry

     iteration # 12     ecut=    80.00 Ry     beta= 0.70
     Davidson diagonalization with overlap
     ethr =  2.71E-09,  avg # of iterations =  1.4

     total cpu time spent up to now is      548.6 secs

     total energy              =   -1058.33028139 Ry
     estimated scf accuracy    <       0.00000275 Ry

     iteration # 13     ecut=    80.00 Ry     beta= 0.70
     Davidson diagonalization with overlap
     ethr =  2.71E-09,  avg # of iterations =  1.9

     total cpu time spent up to now is      555.7 secs

     total energy              =   -1058.33028108 Ry
     estimated scf accuracy    <       0.00000110 Ry

     iteration # 14     ecut=    80.00 Ry     beta= 0.70
     Davidson diagonalization with overlap
     ethr =  2.51E-09,  avg # of iterations =  2.5

     total cpu time spent up to now is      563.4 secs

     total energy              =   -1058.33028114 Ry
     estimated scf accuracy    <       0.00000007 Ry

     iteration # 15     ecut=    80.00 Ry     beta= 0.70
     Davidson diagonalization with overlap
     ethr =  1.62E-10,  avg # of iterations =  4.6

     total cpu time spent up to now is      573.6 secs

     total energy              =   -1058.33028120 Ry
     estimated scf accuracy    <       0.00000009 Ry

     iteration # 16     ecut=    80.00 Ry     beta= 0.70
     Davidson diagonalization with overlap
     ethr =  1.62E-10,  avg # of iterations =  2.3

     total cpu time spent up to now is      581.0 secs

     total energy              =   -1058.33028121 Ry
     estimated scf accuracy    <          5.4E-09 Ry

     iteration # 17     ecut=    80.00 Ry     beta= 0.70
     Davidson diagonalization with overlap
     ethr =  1.23E-11,  avg # of iterations =  4.8

     total cpu time spent up to now is      591.8 secs

     total energy              =   -1058.33028121 Ry
     estimated scf accuracy    <          1.7E-09 Ry

     iteration # 18     ecut=    80.00 Ry     beta= 0.70
     Davidson diagonalization with overlap
     ethr =  3.81E-12,  avg # of iterations =  2.7

     total cpu time spent up to now is      599.7 secs

     total energy              =   -1058.33028121 Ry
     estimated scf accuracy    <          3.4E-10 Ry

     iteration # 19     ecut=    80.00 Ry     beta= 0.70
     Davidson diagonalization with overlap
     ethr =  7.82E-13,  avg # of iterations =  6.2

     total cpu time spent up to now is      612.7 secs

     total energy              =   -1058.33028121 Ry
     estimated scf accuracy    <          2.0E-09 Ry

     iteration # 20     ecut=    80.00 Ry     beta= 0.70
     Davidson diagonalization with overlap
     ethr =  7.82E-13,  avg # of iterations =  1.0

     total cpu time spent up to now is      619.2 secs

     total energy              =   -1058.33028121 Ry
     estimated scf accuracy    <          1.9E-09 Ry

     iteration # 21     ecut=    80.00 Ry     beta= 0.70
     Davidson diagonalization with overlap
     ethr =  7.82E-13,  avg # of iterations =  4.0

     total cpu time spent up to now is      628.8 secs

     total energy              =   -1058.33028121 Ry
     estimated scf accuracy    <          1.7E-10 Ry

     iteration # 22     ecut=    80.00 Ry     beta= 0.70
     Davidson diagonalization with overlap
     ethr =  3.85E-13,  avg # of iterations =  3.2

     total cpu time spent up to now is      636.8 secs

     End of self-consistent calculation

          k = 0.0000 0.0000 0.0000 ( 16519 PWs)   bands (ev):

   -17.8837 -13.2986 -13.2986 -13.1627 -13.1627 -13.1627 -11.1056 -10.4527
   -10.4527  -4.6680  -4.6680  -4.6680  -3.4343  -0.6132  -0.6132  -0.6132
     1.5049   1.5049   1.5049   1.6111   1.6111   1.6111

          k = 0.0000 0.0000 0.1651 ( 16495 PWs)   bands (ev):

   -17.8835 -13.2986 -13.2853 -13.1629 -13.1629 -13.1627 -11.0770 -10.5054
   -10.4523  -4.6658  -4.6654  -4.6654  -3.6601  -0.5913  -0.5913  -0.1446
     1.4739   1.4745   1.4745   1.5819   1.5819   1.5957

          k = 0.0000 0.0000 0.3302 ( 16424 PWs)   bands (ev):

   -17.8831 -13.2986 -13.2582 -13.1633 -13.1633 -13.1627 -10.9939 -10.6373
   -10.4515  -4.6615  -4.6601  -4.6601  -3.9965  -0.5452  -0.5452   0.6466
     1.4024   1.4024   1.4141   1.5340   1.5340   1.7606

          k = 0.0000 0.0000-0.4953 ( 16488 PWs)   bands (ev):

   -17.8828 -13.2985 -13.2444 -13.1635 -13.1635 -13.1627 -10.9101 -10.7459
   -10.4511  -4.6594  -4.6575  -4.6575  -4.1314  -0.5209  -0.5209   0.8774
     1.3621   1.3621   1.3851   1.5137   1.5137   2.1348

          k = 0.0000 0.1651 0.1651 ( 16494 PWs)   bands (ev):

   -17.8833 -13.2920 -13.2784 -13.1631 -13.1629 -13.1629 -11.0500 -10.5271
   -10.4799  -4.6699  -4.6629  -4.6601  -3.8662  -0.5671  -0.2691   0.0033
     1.3226   1.4492   1.5209   1.5454   1.5703   1.6518

          k = 0.0000 0.1651 0.3302 ( 16481 PWs)   bands (ev):

   -17.8829 -13.2896 -13.2532 -13.1635 -13.1633 -13.1629 -10.9710 -10.6418
   -10.4897  -4.6688  -4.6589  -4.6579  -4.1837  -0.5159  -0.1301   0.6569
     1.2113   1.3845   1.4851   1.5077   1.6311   1.8140

          k = 0.0000 0.1651-0.4953 ( 16502 PWs)   bands (ev):

   -17.8827 -13.2894 -13.2395 -13.1637 -13.1635 -13.1629 -10.8891 -10.7461
   -10.4903  -4.6640  -4.6626  -4.6554  -4.3135  -0.4887  -0.0935   0.8163
     1.2235   1.3449   1.4612   1.5007   1.6289   2.1989

          k = 0.0000 0.3302 0.3302 ( 16466 PWs)   bands (ev):

   -17.8825 -13.2791 -13.2355 -13.1639 -13.1633 -13.1633 -10.9031 -10.6740
   -10.5656  -4.6748  -4.6650  -4.6536  -4.4827  -0.4530   0.5759   0.6872
     1.1174   1.3439   1.3888   1.4836   1.8190   2.0638

          k = 0.0000 0.3302-0.4953 ( 16474 PWs)   bands (ev):

   -17.8823 -13.2765 -13.2235 -13.1641 -13.1635 -13.1633 -10.8260 -10.7465
   -10.5908  -4.6733  -4.6727  -4.6514  -4.6076  -0.4192   0.6949   0.7538
     1.2079   1.3108   1.3516   1.4553   1.8597   2.4669

          k = 0.0000-0.4953-0.4953 ( 16484 PWs)   bands (ev):

   -17.8821 -13.2727 -13.2127 -13.1643 -13.1635 -13.1635 -10.7468 -10.7468
   -10.6892  -4.7317  -4.6777  -4.6777  -4.6494  -0.3813   0.6400   1.2181
     1.2181   1.2940   1.2940   1.3583   1.9547   2.8189

          k = 0.1651 0.1651 0.1651 ( 16473 PWs)   bands (ev):

   -17.8831 -13.2783 -13.2783 -13.1631 -13.1631 -13.1631 -11.0247 -10.5266
   -10.5266  -4.6693  -4.6693  -4.6543  -4.0580  -0.2434  -0.2434   0.1335
     1.3026   1.3026   1.4733   1.6115   1.6451   1.6451

          k = 0.1651 0.1651 0.3302 ( 16488 PWs)   bands (ev):

   -17.8827 -13.2783 -13.2505 -13.1635 -13.1635 -13.1631 -10.9503 -10.6446
   -10.5255  -4.6710  -4.6682  -4.6540  -4.3611  -0.1881  -0.0238   0.6670
     1.1434   1.2728   1.5229   1.6138   1.6722   1.8334

          k = 0.1651 0.1651-0.4953 ( 16476 PWs)   bands (ev):

   -17.8825 -13.2783 -13.2363 -13.1637 -13.1637 -13.1631 -10.8711 -10.7461
   -10.5249  -4.6688  -4.6676  -4.6571  -4.4869  -0.1581   0.0277   0.7970
     1.0774   1.3254   1.5053   1.6034   1.6809   2.2467

          k = 0.1651 0.3302 0.3302 ( 16500 PWs)   bands (ev):

   -17.8823 -13.2647 -13.2355 -13.1639 -13.1635 -13.1635 -10.8887 -10.6732
   -10.5955  -4.6781  -4.6732  -4.6573  -4.6499  -0.0563   0.6033   0.7035
     1.0393   1.1748   1.5600   1.6513   1.8195   2.0685

          k = 0.1651 0.3302-0.4953 ( 16486 PWs)   bands (ev):

   -17.8821 -13.2623 -13.2232 -13.1641 -13.1637 -13.1635 -10.8168 -10.7459
   -10.6136  -4.7724  -4.6781  -4.6778  -4.6602  -0.0145   0.7251   0.7722
     1.0157   1.2151   1.5558   1.6305   1.8643   2.5024

          k = 0.1651-0.4953-0.4953 ( 16500 PWs)   bands (ev):

   -17.8819 -13.2581 -13.2127 -13.1643 -13.1637 -13.1637 -10.7458 -10.7458
   -10.7022  -4.8939  -4.6829  -4.6829  -4.6618   0.0327   0.6835   1.0126
     1.0126   1.3597   1.5611   1.5611   1.9575   2.8714

          k = 0.3302 0.3302 0.3302 ( 16530 PWs)   bands (ev):

   -17.8819 -13.2354 -13.2354 -13.1639 -13.1639 -13.1639 -10.8444 -10.6715
   -10.6715  -4.9291  -4.6847  -4.6847  -4.6693   0.6767   0.6767   0.7440
     0.9874   0.9874   1.7970   1.7970   1.8412   2.2707

          k = 0.3302 0.3302-0.4953 ( 16510 PWs)   bands (ev):

   -17.8818 -13.2354 -13.2205 -13.1641 -13.1641 -13.1639 -10.7877 -10.7446
   -10.6707  -5.0494  -4.6881  -4.6880  -4.6776   0.7452   0.7737   0.8331
     0.8822   1.1468   1.7959   1.8084   1.8936   2.7209

          k = 0.3302-0.4953-0.4953 ( 16512 PWs)   bands (ev):

   -17.8816 -13.2280 -13.2127 -13.1643 -13.1641 -13.1641 -10.7439 -10.7439
   -10.7291  -5.1695  -4.6931  -4.6931  -4.6862   0.7719   0.8658   0.8658
     0.9023   1.3627   1.8425   1.8425   1.9630   3.1019

          k =-0.4953-0.4953-0.4953 ( 16560 PWs)   bands (ev):

   -17.8814 -13.2127 -13.2127 -13.1643 -13.1643 -13.1643 -10.7430 -10.7430
   -10.7430  -5.2897  -4.6982  -4.6982  -4.6982   0.8169   0.8169   0.8169
     1.3642   1.3642   1.9658   1.9658   1.9658   3.4785

     highest occupied level (ev):     3.4785

!    total energy              =   -1058.33028121 Ry
     estimated scf accuracy    <          1.2E-11 Ry

     The total energy is the sum of the following terms:
     one-electron contribution =     -97.08771782 Ry
     hartree contribution      =      69.27507291 Ry
     xc contribution           =    -136.59008353 Ry
     ewald contribution        =    -165.48819277 Ry
     one-center paw contrib.   =    -728.43935999 Ry

     convergence has been achieved in  22 iterations

     Forces acting on atoms (cartesian axes, Ry/au):

     atom    1 type  1   force =     0.00000000    0.00000000    0.00000000
     atom    2 type  2   force =     0.00000000    0.00000000    0.00000000
     atom    3 type  3   force =     0.00000000    0.00000000    0.00000000
     atom    4 type  3   force =     0.00000000    0.00000000    0.00000000
     atom    5 type  3   force =     0.00000000    0.00000000    0.00000000

     Total force =     0.000000     Total SCF correction =     0.000000


     Computing stress (Cartesian axis) and pressure

          total   stress  (Ry/bohr**3)                   (kbar)     P=        8.08
   0.00005493   0.00000000   0.00000000            8.08        0.00        0.00
   0.00000000   0.00005493   0.00000000            0.00        8.08        0.00
   0.00000000   0.00000000   0.00005493            0.00        0.00        8.08

     Energy error            =      1.1E-03 Ry
     Gradient error          =      0.0E+00 Ry/Bohr
     Cell gradient error     =      8.1E+00 kbar

     number of scf cycles    =   4
     number of bfgs steps    =   3

     enthalpy           old  =   -1058.3291741919 Ry
     enthalpy           new  =   -1058.3302812077 Ry

     CASE: enthalpy          _new < enthalpy          _old

     new trust radius        =       0.0460546199 bohr
     new conv_thr            =            1.0E-10 Ry

     new unit-cell volume =   1429.82667 a.u.^3 (   211.87845 Ang^3 )
     density =      4.54416 g/cm^3

CELL_PARAMETERS (angstrom)
   5.961592187   0.000000000   0.000000000
   0.000000000   5.961592187   0.000000000
   0.000000000   0.000000000   5.961592187

ATOMIC_POSITIONS (crystal)
Cs               0.0000000000        0.0000000000        0.0000000000
Pb               0.5000000000        0.5000000000        0.5000000000
Br               0.5000000000        0.5000000000        0.0000000000
Br               0.5000000000        0.0000000000        0.5000000000
Br               0.0000000000        0.5000000000        0.5000000000



     Writing config-only to output data dir ./tmp/CsPbBr3.save/ :
     XML data file
     NEW-OLD atomic charge density approx. for the potential

     total cpu time spent up to now is      649.2 secs

     Self-consistent Calculation

     iteration #  1     ecut=    80.00 Ry     beta= 0.70
     Davidson diagonalization with overlap
     ethr =  1.00E-06,  avg # of iterations =  6.5

     total cpu time spent up to now is      663.5 secs

     total energy              =   -1058.33029375 Ry
     estimated scf accuracy    <       0.00170111 Ry

     iteration #  2     ecut=    80.00 Ry     beta= 0.70
     Davidson diagonalization with overlap
     ethr =  3.87E-06,  avg # of iterations =  5.0

     total cpu time spent up to now is      674.0 secs

     total energy              =   -1058.33124880 Ry
     estimated scf accuracy    <       0.00155583 Ry

     iteration #  3     ecut=    80.00 Ry     beta= 0.70
     Davidson diagonalization with overlap
     ethr =  3.54E-06,  avg # of iterations =  1.4

     total cpu time spent up to now is      680.8 secs

     total energy              =   -1058.33129418 Ry
     estimated scf accuracy    <       0.00044985 Ry

     iteration #  4     ecut=    80.00 Ry     beta= 0.70
     Davidson diagonalization with overlap
     ethr =  1.02E-06,  avg # of iterations =  1.6

     total cpu time spent up to now is      687.7 secs

     total energy              =   -1058.33135868 Ry
     estimated scf accuracy    <       0.00024177 Ry

     iteration #  5     ecut=    80.00 Ry     beta= 0.70
     Davidson diagonalization with overlap
     ethr =  5.49E-07,  avg # of iterations =  1.0

     total cpu time spent up to now is      694.2 secs

     total energy              =   -1058.33135619 Ry
     estimated scf accuracy    <       0.00014317 Ry

     iteration #  6     ecut=    80.00 Ry     beta= 0.70
     Davidson diagonalization with overlap
     ethr =  3.25E-07,  avg # of iterations =  2.1

     total cpu time spent up to now is      701.3 secs

     total energy              =   -1058.33135674 Ry
     estimated scf accuracy    <       0.00003629 Ry

     iteration #  7     ecut=    80.00 Ry     beta= 0.70
     Davidson diagonalization with overlap
     ethr =  8.25E-08,  avg # of iterations =  2.0

     total cpu time spent up to now is      708.4 secs

     total energy              =   -1058.33135808 Ry
     estimated scf accuracy    <       0.00001878 Ry

     iteration #  8     ecut=    80.00 Ry     beta= 0.70
     Davidson diagonalization with overlap
     ethr =  4.27E-08,  avg # of iterations =  1.1

     total cpu time spent up to now is      715.0 secs

     total energy              =   -1058.33135826 Ry
     estimated scf accuracy    <       0.00001784 Ry

     iteration #  9     ecut=    80.00 Ry     beta= 0.70
     Davidson diagonalization with overlap
     ethr =  4.05E-08,  avg # of iterations =  1.0

     total cpu time spent up to now is      721.5 secs

     total energy              =   -1058.33135563 Ry
     estimated scf accuracy    <       0.00001620 Ry

     iteration # 10     ecut=    80.00 Ry     beta= 0.70
     Davidson diagonalization with overlap
     ethr =  3.68E-08,  avg # of iterations =  2.0

     total cpu time spent up to now is      728.9 secs

     total energy              =   -1058.33135568 Ry
     estimated scf accuracy    <       0.00000216 Ry

     iteration # 11     ecut=    80.00 Ry     beta= 0.70
     Davidson diagonalization with overlap
     ethr =  4.91E-09,  avg # of iterations =  5.0

     total cpu time spent up to now is      739.8 secs

     total energy              =   -1058.33135721 Ry
     estimated scf accuracy    <       0.00000108 Ry

     iteration # 12     ecut=    80.00 Ry     beta= 0.70
     Davidson diagonalization with overlap
     ethr =  2.46E-09,  avg # of iterations =  1.1

     total cpu time spent up to now is      746.4 secs

     total energy              =   -1058.33135743 Ry
     estimated scf accuracy    <       0.00000126 Ry

     iteration # 13     ecut=    80.00 Ry     beta= 0.70
     Davidson diagonalization with overlap
     ethr =  2.46E-09,  avg # of iterations =  4.1

     total cpu time spent up to now is      755.3 secs

     total energy              =   -1058.33135758 Ry
     estimated scf accuracy    <       0.00000331 Ry

     iteration # 14     ecut=    80.00 Ry     beta= 0.70
     Davidson diagonalization with overlap
     ethr =  2.46E-09,  avg # of iterations =  1.0

     total cpu time spent up to now is      761.8 secs

     total energy              =   -1058.33135760 Ry
     estimated scf accuracy    <       0.00000322 Ry

     iteration # 15     ecut=    80.00 Ry     beta= 0.70
     Davidson diagonalization with overlap
     ethr =  2.46E-09,  avg # of iterations =  1.0

     total cpu time spent up to now is      768.4 secs

     total energy              =   -1058.33135759 Ry
     estimated scf accuracy    <       0.00000324 Ry

     iteration # 16     ecut=    80.00 Ry     beta= 0.70
     Davidson diagonalization with overlap
     ethr =  2.46E-09,  avg # of iterations =  1.0

     total cpu time spent up to now is      774.9 secs

     total energy              =   -1058.33135715 Ry
     estimated scf accuracy    <       0.00000280 Ry

     iteration # 17     ecut=    80.00 Ry     beta= 0.70
     Davidson diagonalization with overlap
     ethr =  2.46E-09,  avg # of iterations =  2.0

     total cpu time spent up to now is      782.4 secs

     total energy              =   -1058.33135710 Ry
     estimated scf accuracy    <       0.00000104 Ry

     iteration # 18     ecut=    80.00 Ry     beta= 0.70
     Davidson diagonalization with overlap
     ethr =  2.36E-09,  avg # of iterations =  2.0

     total cpu time spent up to now is      789.7 secs

     total energy              =   -1058.33135713 Ry
     estimated scf accuracy    <       0.00000034 Ry

     iteration # 19     ecut=    80.00 Ry     beta= 0.70
     Davidson diagonalization with overlap
     ethr =  7.83E-10,  avg # of iterations =  1.1

     total cpu time spent up to now is      796.2 secs

     total energy              =   -1058.33135707 Ry
     estimated scf accuracy    <       0.00000029 Ry

     iteration # 20     ecut=    80.00 Ry     beta= 0.70
     Davidson diagonalization with overlap
     ethr =  6.48E-10,  avg # of iterations =  2.5

     total cpu time spent up to now is      803.9 secs

     total energy              =   -1058.33135707 Ry
     estimated scf accuracy    <       0.00000005 Ry

     iteration # 21     ecut=    80.00 Ry     beta= 0.70
     Davidson diagonalization with overlap
     ethr =  1.11E-10,  avg # of iterations =  5.0

     total cpu time spent up to now is      814.5 secs

     total energy              =   -1058.33135710 Ry
     estimated scf accuracy    <       0.00000002 Ry

     iteration # 22     ecut=    80.00 Ry     beta= 0.70
     Davidson diagonalization with overlap
     ethr =  5.05E-11,  avg # of iterations =  3.4

     total cpu time spent up to now is      822.9 secs

     total energy              =   -1058.33135710 Ry
     estimated scf accuracy    <          2.2E-09 Ry

     iteration # 23     ecut=    80.00 Ry     beta= 0.70
     Davidson diagonalization with overlap
     ethr =  5.06E-12,  avg # of iterations =  4.9

     total cpu time spent up to now is      833.1 secs

     total energy              =   -1058.33135710 Ry
     estimated scf accuracy    <       0.00000002 Ry

     iteration # 24     ecut=    80.00 Ry     beta= 0.70
     Davidson diagonalization with overlap
     ethr =  5.06E-12,  avg # of iterations =  4.0

     total cpu time spent up to now is      842.2 secs

     total energy              =   -1058.33135710 Ry
     estimated scf accuracy    <          3.4E-09 Ry

     iteration # 25     ecut=    80.00 Ry     beta= 0.70
     Davidson diagonalization with overlap
     ethr =  5.06E-12,  avg # of iterations =  1.9

     total cpu time spent up to now is      849.5 secs

     total energy              =   -1058.33135710 Ry
     estimated scf accuracy    <          1.5E-09 Ry

     iteration # 26     ecut=    80.00 Ry     beta= 0.70
     Davidson diagonalization with overlap
     ethr =  3.39E-12,  avg # of iterations =  4.6

     total cpu time spent up to now is      859.5 secs

     total energy              =   -1058.33135710 Ry
     estimated scf accuracy    <          5.6E-10 Ry

     iteration # 27     ecut=    80.00 Ry     beta= 0.70
     Davidson diagonalization with overlap
     ethr =  1.28E-12,  avg # of iterations =  1.1

     total cpu time spent up to now is      866.1 secs

     total energy              =   -1058.33135710 Ry
     estimated scf accuracy    <          2.0E-10 Ry

     iteration # 28     ecut=    80.00 Ry     beta= 0.70
     Davidson diagonalization with overlap
     ethr =  4.44E-13,  avg # of iterations =  2.1

     total cpu time spent up to now is      873.9 secs

     End of self-consistent calculation

          k = 0.0000 0.0000 0.0000 ( 16519 PWs)   bands (ev):

   -18.0574 -13.4809 -13.4809 -13.3598 -13.3598 -13.3598 -11.2029 -10.5920
   -10.5920  -4.8380  -4.8380  -4.8380  -3.6412  -0.7005  -0.7005  -0.7005
     1.3784   1.3784   1.3784   1.4763   1.4763   1.4763

          k = 0.0000 0.0000 0.1641 ( 16495 PWs)   bands (ev):

   -18.0573 -13.4809 -13.4690 -13.3600 -13.3600 -13.3598 -11.1757 -10.6406
   -10.5917  -4.8362  -4.8356  -4.8356  -3.8502  -0.6789  -0.6789  -0.2518
     1.3488   1.3488   1.3489   1.4486   1.4486   1.4593

          k = 0.0000 0.0000 0.3282 ( 16424 PWs)   bands (ev):

   -18.0569 -13.4808 -13.4448 -13.3603 -13.3603 -13.3598 -11.0972 -10.7624
   -10.5909  -4.8327  -4.8309  -4.8309  -4.1685  -0.6335  -0.6335   0.5286
     1.2780   1.2780   1.2920   1.4043   1.4043   1.6017

          k = 0.0000 0.0000-0.4923 ( 16488 PWs)   bands (ev):

   -18.0567 -13.4808 -13.4325 -13.3605 -13.3605 -13.3598 -11.0194 -10.8621
   -10.5905  -4.8310  -4.8285  -4.8285  -4.2977  -0.6095  -0.6095   0.7674
     1.2383   1.2383   1.2645   1.3857   1.3857   1.9473

          k = 0.0000 0.1641 0.1641 ( 16494 PWs)   bands (ev):

   -18.0571 -13.4750 -13.4628 -13.3602 -13.3600 -13.3600 -11.1500 -10.6606
   -10.6171  -4.8399  -4.8334  -4.8310  -4.0427  -0.6552  -0.3657  -0.1112
     1.2008   1.3248   1.3927   1.4135   1.4346   1.5166

          k = 0.0000 0.1641 0.3282 ( 16481 PWs)   bands (ev):

   -18.0567 -13.4729 -13.4404 -13.3605 -13.3603 -13.3600 -11.0753 -10.7664
   -10.6261  -4.8391  -4.8301  -4.8289  -4.3443  -0.6050  -0.2322   0.5412
     1.0913   1.2613   1.3571   1.3785   1.4967   1.6547

          k = 0.0000 0.1641-0.4923 ( 16502 PWs)   bands (ev):

   -18.0565 -13.4726 -13.4282 -13.3607 -13.3605 -13.3600 -10.9992 -10.8623
   -10.6267  -4.8351  -4.8333  -4.8267  -4.4688  -0.5784  -0.1967   0.7090
     1.1047   1.2222   1.3353   1.3712   1.4984   2.0086

          k = 0.0000 0.3282 0.3282 ( 16466 PWs)   bands (ev):

   -18.0563 -13.4634 -13.4247 -13.3609 -13.3603 -13.3603 -11.0109 -10.7959
   -10.6964  -4.8446  -4.8358  -4.8250  -4.6288  -0.5441   0.4579   0.5799
     0.9964   1.2231   1.2647   1.3518   1.6809   1.8835

          k = 0.0000 0.3282-0.4923 ( 16474 PWs)   bands (ev):

   -18.0562 -13.4611 -13.4142 -13.3611 -13.3605 -13.3603 -10.9389 -10.8626
   -10.7197  -4.8434  -4.8427  -4.8231  -4.7487  -0.5113   0.5925   0.6308
     1.0878   1.1905   1.2301   1.3216   1.7211   2.2640

          k = 0.0000-0.4923-0.4923 ( 16484 PWs)   bands (ev):

   -18.0560 -13.4577 -13.4046 -13.3613 -13.3605 -13.3605 -10.8628 -10.8628
   -10.8127  -4.8676  -4.8474  -4.8474  -4.8212  -0.4749   0.5395   1.0968
     1.0968   1.1748   1.1748   1.2138   1.8127   2.5987

          k = 0.1641 0.1641 0.1641 ( 16473 PWs)   bands (ev):

   -18.0569 -13.4628 -13.4628 -13.3601 -13.3601 -13.3601 -11.1259 -10.6601
   -10.6601  -4.8393  -4.8393  -4.8259  -4.2227  -0.3406  -0.3406   0.0143
     1.1818   1.1818   1.3363   1.4815   1.5104   1.5104

          k = 0.1641 0.1641 0.3282 ( 16488 PWs)   bands (ev):

   -18.0565 -13.4627 -13.4380 -13.3605 -13.3605 -13.3601 -11.0555 -10.7690
   -10.6591  -4.8412  -4.8383  -4.8257  -4.5114  -0.2865  -0.1301   0.5532
     1.0267   1.1508   1.3860   1.4821   1.5399   1.6728

          k = 0.1641 0.1641-0.4923 ( 16476 PWs)   bands (ev):

   -18.0563 -13.4627 -13.4254 -13.3607 -13.3607 -13.3601 -10.9820 -10.8622
   -10.6586  -4.8394  -4.8378  -4.8284  -4.6323  -0.2572  -0.0809   0.6903
     0.9624   1.2010   1.3777   1.4724   1.5488   2.0536

          k = 0.1641 0.3282 0.3282 ( 16500 PWs)   bands (ev):

   -18.0562 -13.4506 -13.4247 -13.3609 -13.3605 -13.3605 -10.9970 -10.7951
   -10.7238  -4.8476  -4.8429  -4.8287  -4.7866  -0.1598   0.4846   0.5957
     0.9233   1.0548   1.4265   1.5175   1.6816   1.8866

          k = 0.1641 0.3282-0.4923 ( 16486 PWs)   bands (ev):

   -18.0560 -13.4485 -13.4139 -13.3611 -13.3607 -13.3605 -10.9300 -10.8620
   -10.7406  -4.9042  -4.8477  -4.8472  -4.8312  -0.1195   0.6208   0.6501
     0.9013   1.0896   1.4272   1.4972   1.7256   2.2973

          k = 0.1641-0.4923-0.4923 ( 16500 PWs)   bands (ev):

   -18.0558 -13.4447 -13.4046 -13.3613 -13.3607 -13.3607 -10.8619 -10.8619
   -10.8240  -5.0207  -4.8520  -4.8520  -4.8325  -0.0743   0.5804   0.8978
     0.8978   1.2152   1.4325   1.4325   1.8153   2.6488

          k = 0.3282 0.3282 0.3282 ( 16530 PWs)   bands (ev):

   -18.0559 -13.4247 -13.4247 -13.3609 -13.3609 -13.3609 -10.9550 -10.7936
   -10.7936  -5.0526  -4.8534  -4.8534  -4.8396   0.5558   0.5558   0.6360
     0.8709   0.8709   1.6592   1.6592   1.7032   2.0731

          k = 0.3282 0.3282-0.4923 ( 16510 PWs)   bands (ev):

   -18.0557 -13.4247 -13.4115 -13.3611 -13.3611 -13.3609 -10.9020 -10.8608
   -10.7929  -5.1678  -4.8567  -4.8564  -4.8471   0.6199   0.6661   0.7165
     0.7703   1.0135   1.6594   1.6708   1.7538   2.5058

          k = 0.3282-0.4923-0.4923 ( 16512 PWs)   bands (ev):

   -18.0555 -13.4181 -13.4046 -13.3613 -13.3611 -13.3611 -10.8602 -10.8602
   -10.8473  -5.2828  -4.8611  -4.8611  -4.8547   0.6634   0.7537   0.7537
     0.7709   1.2180   1.7044   1.7044   1.8206   2.8700

          k =-0.4923-0.4923-0.4923 ( 16560 PWs)   bands (ev):

   -18.0554 -13.4046 -13.4046 -13.3613 -13.3613 -13.3613 -10.8593 -10.8593
   -10.8593  -5.3978  -4.8657  -4.8657  -4.8657   0.7055   0.7055   0.7055
     1.2194   1.2194   1.8232   1.8232   1.8232   3.2272

     highest occupied level (ev):     3.2272

!    total energy              =   -1058.33135710 Ry
     estimated scf accuracy    <          4.6E-11 Ry

     The total energy is the sum of the following terms:
     one-electron contribution =     -98.64350633 Ry
     hartree contribution      =      69.79316791 Ry
     xc contribution           =    -136.56537091 Ry
     ewald contribution        =    -164.47731411 Ry
     one-center paw contrib.   =    -728.43833365 Ry

     convergence has been achieved in  28 iterations

     Forces acting on atoms (cartesian axes, Ry/au):

     atom    1 type  1   force =     0.00000000    0.00000000    0.00000000
     atom    2 type  2   force =     0.00000000    0.00000000    0.00000000
     atom    3 type  3   force =     0.00000000    0.00000000    0.00000000
     atom    4 type  3   force =     0.00000000    0.00000000    0.00000000
     atom    5 type  3   force =     0.00000000    0.00000000    0.00000000

     Total force =     0.000000     Total SCF correction =     0.000000


     Computing stress (Cartesian axis) and pressure

          total   stress  (Ry/bohr**3)                   (kbar)     P=        4.14
   0.00002817   0.00000000   0.00000000            4.14        0.00        0.00
   0.00000000   0.00002817   0.00000000            0.00        4.14        0.00
   0.00000000   0.00000000   0.00002817            0.00        0.00        4.14

     Energy error            =      1.1E-03 Ry
     Gradient error          =      0.0E+00 Ry/Bohr
     Cell gradient error     =      4.1E+00 kbar

     number of scf cycles    =   5
     number of bfgs steps    =   4

     enthalpy           old  =   -1058.3302812077 Ry
     enthalpy           new  =   -1058.3313570987 Ry

     CASE: enthalpy          _new < enthalpy          _old

     new trust radius        =       0.0498635495 bohr
     new conv_thr            =            1.0E-10 Ry

     new unit-cell volume =   1458.29595 a.u.^3 (   216.09716 Ang^3 )
     density =      4.45545 g/cm^3

CELL_PARAMETERS (angstrom)
   6.000899537   0.000000000   0.000000000
   0.000000000   6.000899537   0.000000000
   0.000000000   0.000000000   6.000899537

ATOMIC_POSITIONS (crystal)
Cs               0.0000000000        0.0000000000        0.0000000000
Pb               0.5000000000        0.5000000000        0.5000000000
Br               0.5000000000        0.5000000000        0.0000000000
Br               0.5000000000        0.0000000000        0.5000000000
Br               0.0000000000        0.5000000000        0.5000000000



     Writing config-only to output data dir ./tmp/CsPbBr3.save/ :
     XML data file
     NEW-OLD atomic charge density approx. for the potential

     total cpu time spent up to now is      886.6 secs

     Self-consistent Calculation

     iteration #  1     ecut=    80.00 Ry     beta= 0.70
     Davidson diagonalization with overlap
     ethr =  1.00E-06,  avg # of iterations =  6.5

     total cpu time spent up to now is      901.2 secs

     total energy              =   -1058.33055933 Ry
     estimated scf accuracy    <       0.00195030 Ry

     iteration #  2     ecut=    80.00 Ry     beta= 0.70
     Davidson diagonalization with overlap
     ethr =  4.43E-06,  avg # of iterations =  5.0

     total cpu time spent up to now is      911.6 secs

     total energy              =   -1058.33165286 Ry
     estimated scf accuracy    <       0.00178239 Ry

     iteration #  3     ecut=    80.00 Ry     beta= 0.70
     Davidson diagonalization with overlap
     ethr =  4.05E-06,  avg # of iterations =  1.6

     total cpu time spent up to now is      918.4 secs

     total energy              =   -1058.33170489 Ry
     estimated scf accuracy    <       0.00051861 Ry

[...]
Pb               0.5000000000        0.5000000000        0.5000000000
Br               0.5000000000        0.5000000000        0.0000000000
Br               0.5000000000        0.0000000000        0.5000000000
Br               0.0000000000        0.5000000000        0.5000000000
End final coordinates



     Writing config-only to output data dir ./tmp/CsPbBr3.save/ :
     XML data file

     Final scf calculation at the relaxed structure.
     The G-vectors are recalculated for the final unit cell
     Results may differ from those at the preceding step.

     G-vector sticks info
     --------------------
     sticks:   dense  smooth     PW     G-vecs:    dense   smooth      PW
     Sum        3289    3289    901               141097   141097   20479

     Using Slab Decomposition



     bravais-lattice index     =            0
     lattice parameter (alat)  =      11.0927  a.u.
     unit-cell volume          =    1460.3493 (a.u.)^3
     number of atoms/cell      =            5
     number of atomic types    =            3
     number of electrons       =        44.00
     number of Kohn-Sham states=           22
     kinetic-energy cutoff     =      80.0000  Ry
     charge density cutoff     =     320.0000  Ry
     scf convergence threshold =      1.0E-10
     mixing beta               =       0.7000
     number of iterations used =            8  plain     mixing
     press convergence thresh. =      5.0E-01
     Exchange-correlation=  SLA  PW   PBX  PBC
                           (   1   4   3   4   0   0   0)

     celldm(1)=  11.092692  celldm(2)=   0.000000  celldm(3)=   0.000000
     celldm(4)=   0.000000  celldm(5)=   0.000000  celldm(6)=   0.000000

     crystal axes: (cart. coord. in units of alat)
               a(1) = (   1.022779   0.000000   0.000000 )  
               a(2) = (   0.000000   1.022779   0.000000 )  
               a(3) = (   0.000000   0.000000   1.022779 )  

     reciprocal axes: (cart. coord. in units 2 pi/alat)
               b(1) = (  0.977728  0.000000  0.000000 )  
               b(2) = (  0.000000  0.977728  0.000000 )  
               b(3) = (  0.000000  0.000000  0.977728 )  


     PseudoPot. # 1 for Cs read from file:
     ./Cs.nc.z_9.oncvpsp3.dojo.v4-str.UPF
     MD5 check sum: d01c53d012be9123745781bcb8b00a26
     Pseudo is Norm-conserving + core correction, Zval =  9.0
     Generated using ONCVPSP code by D. R. Hamann
     Using radial grid of 2414 points,  8 beta functions with: 
                l(1) =   0
                l(2) =   0
                l(3) =   1
                l(4) =   1
                l(5) =   2
                l(6) =   2
                l(7) =   3
                l(8) =   3

     PseudoPot. # 2 for Pb read from file:
     ./Pb.pbe-dn-kjpaw_psl.0.2.2.UPF
     MD5 check sum: 9d431e6316058b74ade52399a6cf67da
     Pseudo is Projector augmented-wave + core cor, Zval = 14.0
     Generated using "atomic" code by A. Dal Corso  v.5.0.99 svn rev. 10869
     Shape of augmentation charge: PSQ
     Using radial grid of 1281 points,  6 beta functions with: 
                l(1) =   0
                l(2) =   0
                l(3) =   1
                l(4) =   1
                l(5) =   2
                l(6) =   2
     Q(r) pseudized with 0 coefficients 


     PseudoPot. # 3 for Br read from file:
     ./br_pbe_v1.4.uspp.F.UPF
     MD5 check sum: d3ffb7b29f6225aa16fe06858fb2a80b
     Pseudo is Ultrasoft + core correction, Zval =  7.0
     Generated by new atomic code, or converted to UPF format
     Using radial grid of  879 points,  6 beta functions with: 
                l(1) =   0
                l(2) =   0
                l(3) =   1
                l(4) =   1
                l(5) =   2
                l(6) =   2
     Q(r) pseudized with  8 coefficients,  rinner =    1.100   1.100   1.100
                                                       1.100   1.100

     atomic species   valence    mass     pseudopotential
     Cs                9.00   132.90545     Cs( 1.00)
     Pb               14.00   207.20000     Pb( 1.00)
     Br                7.00    79.90400     Br( 1.00)

     48 Sym. Ops., with inversion, found



   Cartesian axes

     site n.     atom                  positions (alat units)
         1        Cs     tau(   1) = (   0.0000000   0.0000000   0.0000000  )
         2        Pb     tau(   2) = (   0.5113897   0.5113897   0.5113897  )
         3        Br     tau(   3) = (   0.5113897   0.5113897   0.0000000  )
         4        Br     tau(   4) = (   0.5113897   0.0000000   0.5113897  )
         5        Br     tau(   5) = (   0.0000000   0.5113897   0.5113897  )

     number of k points=    20
                       cart. coord. in units 2pi/alat
        k(    1) = (   0.0000000   0.0000000   0.0000000), wk =   0.0092593
        k(    2) = (   0.0000000   0.0000000   0.1629547), wk =   0.0555556
        k(    3) = (   0.0000000   0.0000000   0.3259093), wk =   0.0555556
        k(    4) = (   0.0000000   0.0000000  -0.4888640), wk =   0.0277778
        k(    5) = (   0.0000000   0.1629547   0.1629547), wk =   0.1111111
        k(    6) = (   0.0000000   0.1629547   0.3259093), wk =   0.2222222
        k(    7) = (   0.0000000   0.1629547  -0.4888640), wk =   0.1111111
        k(    8) = (   0.0000000   0.3259093   0.3259093), wk =   0.1111111
        k(    9) = (   0.0000000   0.3259093  -0.4888640), wk =   0.1111111
        k(   10) = (   0.0000000  -0.4888640  -0.4888640), wk =   0.0277778
        k(   11) = (   0.1629547   0.1629547   0.1629547), wk =   0.0740741
        k(   12) = (   0.1629547   0.1629547   0.3259093), wk =   0.2222222
        k(   13) = (   0.1629547   0.1629547  -0.4888640), wk =   0.1111111
        k(   14) = (   0.1629547   0.3259093   0.3259093), wk =   0.2222222
        k(   15) = (   0.1629547   0.3259093  -0.4888640), wk =   0.2222222
        k(   16) = (   0.1629547  -0.4888640  -0.4888640), wk =   0.0555556
        k(   17) = (   0.3259093   0.3259093   0.3259093), wk =   0.0740741
        k(   18) = (   0.3259093   0.3259093  -0.4888640), wk =   0.1111111
        k(   19) = (   0.3259093  -0.4888640  -0.4888640), wk =   0.0555556
        k(   20) = (  -0.4888640  -0.4888640  -0.4888640), wk =   0.0092593

     Dense  grid:   141097 G-vectors     FFT dimensions: (  72,  72,  72)

     Estimated max dynamical RAM per process >     753.43 MB

     Initial potential from superposition of free atoms

     starting charge      43.9594, renormalised to      44.0000
     Starting wfcs are   26 randomized atomic wfcs
     Checking if some PAW data can be deallocated... 

     total cpu time spent up to now is     1263.1 secs

     Self-consistent Calculation

     iteration #  1     ecut=    80.00 Ry     beta= 0.70
     Davidson diagonalization with overlap
     ethr =  1.00E-06,  avg # of iterations = 15.3

     total cpu time spent up to now is     1295.2 secs

     total energy              =   -1058.27581208 Ry
     estimated scf accuracy    <       0.15648552 Ry

     iteration #  2     ecut=    80.00 Ry     beta= 0.70
     Davidson diagonalization with overlap
     ethr =  3.56E-04,  avg # of iterations =  3.0

     total cpu time spent up to now is     1304.4 secs

     total energy              =   -1058.32270709 Ry
     estimated scf accuracy    <       0.04371592 Ry

     iteration #  3     ecut=    80.00 Ry     beta= 0.70
     Davidson diagonalization with overlap
     ethr =  9.94E-05,  avg # of iterations =  2.1

     total cpu time spent up to now is     1312.9 secs

     total energy              =   -1058.33108242 Ry
     estimated scf accuracy    <       0.00079758 Ry

     iteration #  4     ecut=    80.00 Ry     beta= 0.70
     Davidson diagonalization with overlap
     ethr =  1.81E-06,  avg # of iterations =  5.1

     total cpu time spent up to now is     1325.8 secs

     total energy              =   -1058.33169667 Ry
     estimated scf accuracy    <       0.00039404 Ry

     iteration #  5     ecut=    80.00 Ry     beta= 0.70
     Davidson diagonalization with overlap
     ethr =  8.96E-07,  avg # of iterations =  2.8

     total cpu time spent up to now is     1334.7 secs

     total energy              =   -1058.33179706 Ry
     estimated scf accuracy    <       0.00001117 Ry

     iteration #  6     ecut=    80.00 Ry     beta= 0.70
     Davidson diagonalization with overlap
     ethr =  2.54E-08,  avg # of iterations =  5.8

     total cpu time spent up to now is     1348.5 secs

     total energy              =   -1058.33181071 Ry
     estimated scf accuracy    <       0.00000648 Ry

     iteration #  7     ecut=    80.00 Ry     beta= 0.70
     Davidson diagonalization with overlap
     ethr =  1.47E-08,  avg # of iterations =  2.6

     total cpu time spent up to now is     1356.5 secs

     total energy              =   -1058.33181011 Ry
     estimated scf accuracy    <       0.00000198 Ry

     iteration #  8     ecut=    80.00 Ry     beta= 0.70
     Davidson diagonalization with overlap
     ethr =  4.49E-09,  avg # of iterations =  3.8

     total cpu time spent up to now is     1366.1 secs

     total energy              =   -1058.33181074 Ry
     estimated scf accuracy    <       0.00000003 Ry

     iteration #  9     ecut=    80.00 Ry     beta= 0.70
     Davidson diagonalization with overlap
     ethr =  7.91E-11,  avg # of iterations =  6.7

     total cpu time spent up to now is     1381.0 secs

     total energy              =   -1058.33181079 Ry
     estimated scf accuracy    <       0.00000003 Ry

     iteration # 10     ecut=    80.00 Ry     beta= 0.70
     Davidson diagonalization with overlap
     ethr =  6.77E-11,  avg # of iterations =  3.4

     total cpu time spent up to now is     1390.5 secs

     total energy              =   -1058.33181080 Ry
     estimated scf accuracy    <          2.1E-09 Ry

     iteration # 11     ecut=    80.00 Ry     beta= 0.70
     Davidson diagonalization with overlap
     ethr =  4.78E-12,  avg # of iterations =  5.0

     total cpu time spent up to now is     1402.2 secs

     total energy              =   -1058.33181080 Ry
     estimated scf accuracy    <          2.9E-10 Ry

     iteration # 12     ecut=    80.00 Ry     beta= 0.70
     Davidson diagonalization with overlap
     ethr =  6.60E-13,  avg # of iterations =  4.5

     total cpu time spent up to now is     1413.4 secs

     total energy              =   -1058.33181080 Ry
     estimated scf accuracy    <          1.7E-10 Ry

     iteration # 13     ecut=    80.00 Ry     beta= 0.70
     Davidson diagonalization with overlap
     ethr =  3.92E-13,  avg # of iterations =  3.1

     total cpu time spent up to now is     1421.6 secs

     End of self-consistent calculation

          k = 0.0000 0.0000 0.0000 ( 17557 PWs)   bands (ev):

   -18.2540 -13.6898 -13.6898 -13.5841 -13.5841 -13.5841 -11.3131 -10.7472
   -10.7472  -5.0305  -5.0305  -5.0305  -3.8748  -0.7983  -0.7983  -0.7983
     1.2362   1.2362   1.2362   1.3251   1.3251   1.3251

          k = 0.0000 0.0000 0.1630 ( 17624 PWs)   bands (ev):

   -18.2539 -13.6898 -13.6793 -13.5842 -13.5842 -13.5841 -11.2874 -10.7914
   -10.7469  -5.0292  -5.0285  -5.0285  -4.0661  -0.7771  -0.7771  -0.3710
     1.2076   1.2076   1.2084   1.2991   1.2991   1.3065

          k = 0.0000 0.0000 0.3259 ( 17628 PWs)   bands (ev):

   -18.2535 -13.6897 -13.6581 -13.5845 -13.5845 -13.5840 -11.2139 -10.9024
   -10.7462  -5.0265  -5.0243  -5.0243  -4.3641  -0.7325  -0.7325   0.3961
     1.1382   1.1382   1.1547   1.2587   1.2587   1.4248

          k = 0.0000 0.0000-0.4889 ( 17640 PWs)   bands (ev):

   -18.2533 -13.6897 -13.6474 -13.5847 -13.5847 -13.5840 -11.1425 -10.9929
   -10.7459  -5.0252  -5.0223  -5.0223  -4.4869  -0.7090  -0.7090   0.6439
     1.0993   1.0993   1.1287   1.2419   1.2419   1.7383

          k = 0.0000 0.1630 0.1630 ( 17633 PWs)   bands (ev):

   -18.2537 -13.6846 -13.6739 -13.5844 -13.5842 -13.5842 -11.2631 -10.8097
   -10.7701  -5.0324  -5.0265  -5.0246  -4.2438  -0.7539  -0.4739  -0.2386
     1.0639   1.1848   1.2486   1.2657   1.2828   1.3650

          k = 0.0000 0.1630 0.3259 ( 17657 PWs)   bands (ev):

   -18.2534 -13.6827 -13.6543 -13.5847 -13.5845 -13.5842 -11.1931 -10.9060
   -10.7783  -5.0320  -5.0240  -5.0226  -4.5275  -0.7051  -0.3465   0.4111
     0.9564   1.1229   1.2135   1.2334   1.3453   1.4785

          k = 0.0000 0.1630-0.4889 ( 17660 PWs)   bands (ev):

   -18.2532 -13.6825 -13.6437 -13.5849 -13.5847 -13.5842 -11.1232 -10.9930
   -10.7788  -5.0288  -5.0267  -5.0207  -4.6460  -0.6791  -0.3124   0.5884
     0.9713   1.0845   1.1939   1.2256   1.3518   1.7966

          k = 0.0000 0.3259 0.3259 ( 17667 PWs)   bands (ev):

   -18.2531 -13.6744 -13.6408 -13.5850 -13.5845 -13.5845 -11.1326 -10.9327
   -10.8426  -5.0370  -5.0292  -5.0192  -4.7957  -0.6464   0.3257   0.4590
     0.8602   1.0873   1.1253   1.2040   1.5260   1.6829

          k = 0.0000 0.3259-0.4889 ( 17670 PWs)   bands (ev):

   -18.2529 -13.6724 -13.6316 -13.5852 -13.5847 -13.5845 -11.0661 -10.9933
   -10.8640  -5.0361  -5.0354  -5.0174  -4.9099  -0.6148   0.4773   0.4928
     0.9530   1.0553   1.0935   1.1718   1.5655   2.0377

          k = 0.0000-0.4889-0.4889 ( 17612 PWs)   bands (ev):

   -18.2528 -13.6693 -13.6234 -13.5853 -13.5847 -13.5847 -10.9934 -10.9934
   -10.9509  -5.0397  -5.0397  -5.0230  -5.0158  -0.5800   0.4266   0.9609
     0.9609   1.0408   1.0408   1.0523   1.6533   2.3531

          k = 0.1630 0.1630 0.1630 ( 17638 PWs)   bands (ev):

   -18.2535 -13.6739 -13.6739 -13.5844 -13.5844 -13.5844 -11.2403 -10.8092
   -10.8092  -5.0320  -5.0320  -5.0201  -4.4110  -0.4494  -0.4494  -0.1185
     1.0460   1.0460   1.1833   1.3354   1.3594   1.3594

          k = 0.1630 0.1630 0.3259 ( 17655 PWs)   bands (ev):

   -18.2532 -13.6739 -13.6523 -13.5847 -13.5847 -13.5844 -11.1744 -10.9083
   -10.8083  -5.0339  -5.0311  -5.0200  -4.6833  -0.3968  -0.2492   0.4251
     0.8957   1.0137   1.2318   1.3343   1.3912   1.4951

          k = 0.1630 0.1630-0.4889 ( 17650 PWs)   bands (ev):

   -18.2531 -13.6739 -13.6413 -13.5849 -13.5849 -13.5844 -11.1067 -10.9929
   -10.8078  -5.0325  -5.0306  -5.0223  -4.7986  -0.3683  -0.2024   0.5704
     0.8333   1.0614   1.2344   1.3253   1.4004   1.8384

          k = 0.1630 0.3259 0.3259 ( 17642 PWs)   bands (ev):

   -18.2529 -13.6633 -13.6408 -13.5850 -13.5847 -13.5847 -11.1193 -10.9320
   -10.8674  -5.0396  -5.0354  -5.0227  -4.9433  -0.2757   0.3516   0.4744
     0.7931   0.9203   1.2760   1.3675   1.5268   1.6846

          k = 0.1630 0.3259-0.4889 ( 17650 PWs)   bands (ev):

   -18.2528 -13.6614 -13.6314 -13.5852 -13.5849 -13.5847 -11.0574 -10.9927
   -10.8827  -5.0552  -5.0399  -5.0393  -5.0248  -0.2372   0.5036   0.5130
     0.7729   0.9492   1.2828   1.3476   1.5698   2.0685

          k = 0.1630-0.4889-0.4889 ( 17656 PWs)   bands (ev):

   -18.2526 -13.6580 -13.6234 -13.5853 -13.5849 -13.5849 -10.9927 -10.9927
   -10.9605  -5.1661  -5.0437  -5.0437  -5.0259  -0.1942   0.4646   0.7690
     0.7690   1.0536   1.2881   1.2881   1.6558   2.4006

          k = 0.3259 0.3259 0.3259 ( 17655 PWs)   bands (ev):

   -18.2526 -13.6407 -13.6407 -13.5850 -13.5850 -13.5850 -11.0796 -10.9306
   -10.9306  -5.1944  -5.0447  -5.0447  -5.0326   0.4202   0.4202   0.5148
     0.7405   0.7405   1.5046   1.5046   1.5483   1.8523

          k = 0.3259 0.3259-0.4889 ( 17658 PWs)   bands (ev):

   -18.2525 -13.6407 -13.6293 -13.5852 -13.5852 -13.5850 -11.0307 -10.9917
   -10.9300  -5.3040  -5.0478  -5.0473  -5.0391   0.4797   0.5454   0.5852
     0.6449   0.8649   1.5062   1.5163   1.5968   2.2655

          k = 0.3259-0.4889-0.4889 ( 17656 PWs)   bands (ev):

   -18.2524 -13.6351 -13.6234 -13.5854 -13.5852 -13.5852 -10.9911 -10.9911
   -10.9802  -5.4132  -5.0517  -5.0517  -5.0458   0.5418   0.6239   0.6283
     0.6283   1.0563   1.5495   1.5495   1.6607   2.6108

          k =-0.4889-0.4889-0.4889 ( 17784 PWs)   bands (ev):

   -18.2522 -13.6234 -13.6234 -13.5854 -13.5854 -13.5854 -10.9903 -10.9903
   -10.9903  -5.5223  -5.0557  -5.0557  -5.0557   0.5809   0.5809   0.5809
     1.0576   1.0576   1.6632   1.6632   1.6632   2.9468

     highest occupied level (ev):     2.9468

!    total energy              =   -1058.33181080 Ry
     estimated scf accuracy    <          1.5E-11 Ry

     The total energy is the sum of the following terms:
     one-electron contribution =    -100.42319102 Ry
     hartree contribution      =      70.38948739 Ry
     xc contribution           =    -136.53771418 Ry
     ewald contribution        =    -163.32332942 Ry
     one-center paw contrib.   =    -728.43706357 Ry

     convergence has been achieved in  13 iterations

     Forces acting on atoms (cartesian axes, Ry/au):

     atom    1 type  1   force =     0.00000000    0.00000000    0.00000000
     atom    2 type  2   force =     0.00000000    0.00000000    0.00000000
     atom    3 type  3   force =     0.00000000    0.00000000    0.00000000
     atom    4 type  3   force =     0.00000000    0.00000000    0.00000000
     atom    5 type  3   force =     0.00000000    0.00000000    0.00000000

     Total force =     0.000000     Total SCF correction =     0.000000


     Computing stress (Cartesian axis) and pressure

          total   stress  (Ry/bohr**3)                   (kbar)     P=        0.04
   0.00000029   0.00000000   0.00000000            0.04        0.00        0.00
   0.00000000   0.00000029   0.00000000            0.00        0.04        0.00
   0.00000000   0.00000000   0.00000029            0.00        0.00        0.04


     Writing all to output data dir ./tmp/CsPbBr3.save/ :
     XML data file, charge density, pseudopotentials, collected wavefunctions

     init_run     :      7.00s CPU      7.46s WALL (       2 calls)
     electrons    :   1232.48s CPU   1327.41s WALL (       8 calls)
     update_pot   :      0.82s CPU      0.85s WALL (       6 calls)
     forces       :      9.25s CPU     10.57s WALL (       8 calls)
     stress       :     80.64s CPU     83.75s WALL (       8 calls)

     Called by init_run:
     wfcinit      :      5.08s CPU      5.36s WALL (       2 calls)
     potinit      :      0.30s CPU      0.32s WALL (       2 calls)
     hinit0       :      0.93s CPU      0.95s WALL (       2 calls)

     Called by electrons:
     c_bands      :    986.18s CPU   1058.11s WALL (     152 calls)
     sum_band     :    185.83s CPU    199.86s WALL (     152 calls)
     v_of_rho     :      9.12s CPU      9.54s WALL (     158 calls)
     newd         :     43.11s CPU     51.68s WALL (     158 calls)
     PAW_pot      :      9.86s CPU      9.99s WALL (     164 calls)
     mix_rho      :      1.66s CPU      1.93s WALL (     152 calls)

     Called by c_bands:
     init_us_2    :     29.52s CPU     31.98s WALL (    6560 calls)
     cegterg      :    896.17s CPU    966.45s WALL (    3040 calls)

     Called by *egterg:
     cdiaghg      :      3.77s CPU      4.14s WALL (   11951 calls)
     h_psi        :    710.13s CPU    741.35s WALL (   12151 calls)
     s_psi        :     60.28s CPU     73.32s WALL (   12151 calls)
     g_psi        :      1.92s CPU      1.95s WALL (    9071 calls)

     Called by h_psi:
     h_psi:calbec :     78.45s CPU     91.59s WALL (   12151 calls)
     vloc_psi     :    562.52s CPU    565.94s WALL (   12151 calls)
     add_vuspsi   :     66.94s CPU     80.58s WALL (   12151 calls)

     General routines
     calbec       :    106.75s CPU    124.52s WALL (   16111 calls)
     fft          :      5.63s CPU      5.66s WALL (    1946 calls)
     ffts         :      0.46s CPU      0.46s WALL (     152 calls)
     fftw         :    600.19s CPU    603.04s WALL (  421834 calls)

     Parallel routines

     PWSCF        :  22m13.79s CPU  23m54.29s WALL


   This run was terminated on:  17:50: 4  19Dec2025            

=------------------------------------------------------------------------------=
   JOB DONE.
=------------------------------------------------------------------------------=
